338
	Energy:    1349.1180015
N         20.05295       35.71881       51.72627
C         19.40465       36.05291       50.45577
C         19.08395       37.54141       50.28657
O         18.74425       37.95781       49.18557
C         18.09435       35.24521       50.34277
C         18.22715       33.73111       50.27417
C         18.76485       33.26401       48.91707
O         19.20715       34.11041       48.09217
O         18.75635       32.03791       48.67887
H         19.59495       34.99651       52.25917
H         20.10005       35.79751       49.65677
H         17.51235       35.59611       49.48967
H         17.49215       35.48941       51.21897
H         17.26475       33.25241       50.44687
H         18.86845       33.46891       51.06697
C         21.16855       36.26551       52.22137
C         21.57055       35.68641       53.57697
H         22.40545       36.18011       54.09507
H         20.72555       35.62891       54.29637
H         21.88375       34.63671       53.37967
O         21.78475       37.13851       51.63957
N         19.20535       38.32061       51.35987
C         19.12595       39.82951       51.19907
H         19.58465       37.90191       52.19457
H         19.08825       40.29831       52.18247
H         20.00475       40.18531       50.66117
H         18.22785       40.08941       50.63867
N         18.43075       33.34871       36.17577
C         17.58245       34.37761       36.76267
C         18.12995       35.76821       36.42687
O         18.97595       35.92421       35.54417
N         17.63075       36.79141       37.12897
C         17.84055       38.19951       36.77217
C         16.51375       38.97091       36.84747
O         16.34155       39.96871       36.15407
N         15.56805       38.51461       37.67767
C         14.28315       39.14461       37.96347
C         13.24015       38.94091       36.86307
O         12.20455       39.59341       36.94257
N         18.36465       29.38551       38.96987
C         18.48255       30.20161       40.15187
C         17.60765       31.44131       40.00627
O         17.46295       31.95621       38.89677
C         19.96035       30.50281       40.44157
C         20.22745       31.25991       41.77867
C         20.34545       32.75691       41.61067
O         20.24845       33.22391       40.44567
O         20.49015       33.47261       42.64457
N         17.04425       31.91231       41.12537
C         16.28905       33.16351       41.22167
C         15.05165       33.08191       40.30877
O         14.30195       32.10791       40.41887
C         17.25845       34.35791       41.00567
O         16.81745       35.54291       41.67467
N         14.86825       34.01941       39.36767
C         13.83725       33.92681       38.32547
C         13.92075       32.66131       37.45597
O         12.89495       32.22261       36.94187
C         13.81545       35.18701       37.45167
N         17.18265       29.16341       45.20867
C         16.76775       30.49961       45.66347
C         15.58275       31.13151       44.87927
O         15.73505       32.24881       44.38557
C         18.00845       31.43591       45.65567
O         19.08945       30.86391       46.36867
N         14.42915       30.45461       44.76547
C         13.26055       31.01511       44.06997
C         12.22745       29.91761       43.77237
O         12.57085       28.73601       43.72857
N          7.23885       32.70131       45.52397
C          7.90305       33.87501       46.00337
C          7.06745       34.86521       45.41967
O          7.13175       35.10341       44.18747
C          9.17535       34.17791       45.27357
N          7.76435       38.32881       43.91367
C          8.11475       38.96571       42.72827
C          7.80365       38.03001       41.53627
O          8.07895       38.48901       40.42767
C          9.57035       39.29611       43.06077
C         10.41735       38.12471       43.47857
C         10.84125       37.84351       44.75337
C         10.95265       37.07891       42.64497
N         11.58425       36.69331       44.76907
C         11.67735       36.19361       43.49127
C         10.88355       36.78951       41.27487
C         12.32545       35.04991       43.01267
C         11.53745       35.63791       40.79767
C         12.24645       34.78791       41.66567
N         20.10305       43.10491       47.93137
C         19.19655       44.08371       47.36677
C         19.13565       45.40051       48.10097
O         18.36235       46.27981       47.71927
C         17.83585       43.44171       47.43667
C         17.85215       42.16401       46.65707
C         17.80655       42.19001       45.26977
C         17.95845       40.93641       47.30357
C         17.84725       41.01441       44.52227
C         18.00255       39.74331       46.56957
C         17.95145       39.78701       45.17937
N         12.34565       34.63551       49.39357
C         13.15565       33.62961       48.79027
C         13.00005       32.47581       49.77397
O         12.41445       31.48481       49.33867
C         14.64915       34.03851       48.73257
C         14.93705       35.06621       47.65357
C         14.83375       34.73311       46.29737
C         15.27865       36.37681       47.98957
C         15.07965       35.67891       45.28457
C         15.51865       37.35321       46.99377
C         15.42445       37.00881       45.65067
N         22.79685       36.16281       47.72837
C         22.02865       35.75951       46.57517
C         22.84825       35.80861       45.28097
O         23.46235       36.83741       44.98937
C         20.87255       36.72671       46.43987
C         19.91365       36.25211       45.39177
N         19.02955       35.21121       45.61657
C         19.61385       36.74111       44.16297
C         18.25955       35.06091       44.55577
N         18.58835       35.97391       43.65847
N         22.80165       34.71041       44.53077
C         23.49895       34.61921       43.26557
C         24.74775       33.75321       43.39307
O         25.39755       33.51491       42.37927
O         17.18985       40.60411       39.17837
H         17.56535       34.24291       37.83757
H         16.56105       34.29641       36.39407
H         17.01305       36.60641       37.91077
H         18.24855       38.31321       35.76607
H         18.55605       38.64771       37.46137
H         15.80975       37.74931       38.30777
H         14.42695       40.21561       38.11597
H         13.88365       38.74721       38.89597
H         18.10125       29.60511       40.95397
H         20.42955       30.97201       39.57737
H         20.48185       29.53241       40.53547
H         21.21955       30.97861       42.10717
H         19.55375       31.01251       42.58727
H         17.11325       31.35851       41.97767
H         15.90295       33.22601       42.23397
H         17.51735       34.55251       39.96757
H         18.18055       34.14501       41.52217
H         17.36105       35.66941       42.46327
H         15.45615       34.84641       39.37377
H         12.87605       33.86911       38.83147
H         13.14015       35.04281       36.61007
H         13.45355       36.04901       38.01197
H         14.79055       35.44721       37.04347
H         16.42885       30.38711       46.69387
H         17.72345       32.37071       46.13967
H         18.36985       31.69461       44.65987
H         19.07085       31.24131       47.26167
H         14.32975       29.53451       45.20327
H         13.56325       31.47241       43.12587
H         12.81605       31.79621       44.68807
H          7.84245       32.01551       45.10067
H          7.97745       33.93221       47.09087
H          9.66465       35.06941       45.65617
H          9.74325       33.31371       45.61907
H          9.24055       34.20901       44.18527
H          8.37945       37.56821       44.17117
H          7.57585       39.89961       42.55027
H          9.71205       40.07911       43.80557
H          9.95935       39.71021       42.13607
H         10.56715       38.42611       45.60297
H         11.95975       36.27421       45.60977
H         10.35955       37.43911       40.59187
H         12.85785       34.38761       43.67987
H         11.48815       35.40471       39.74587
H         12.70995       33.89851       41.27787
H         19.66295       42.21751       48.12697
H         19.48135       44.28591       46.33227
H         17.11715       44.13591       47.01287
H         17.46535       43.22261       48.43877
H         17.74245       43.12641       44.75117
H         18.00595       40.89481       48.38077
H         17.80795       41.04331       43.44997
H         18.08125       38.79131       47.06967
H         17.97695       38.87181       44.60847
H         12.50365       34.55431       50.38577
H         12.76425       33.35661       47.80817
H         15.13735       33.10491       48.44897
H         15.13555       34.36091       49.65387
H         14.56125       33.72881       46.00817
H         15.34465       36.66211       49.02907
H         15.01165       35.42341       44.25337
H         15.76015       38.36281       47.27447
H         15.60865       37.74811       44.88517
H         22.44105       36.94781       48.25207
H         21.66115       34.74681       46.75937
H         21.22795       37.72971       46.17867
H         20.29315       36.83431       47.36357
H         18.99695       34.67241       46.47897
H         20.03745       37.57071       43.61647
H         17.48525       34.31601       44.44607
H         22.28275       33.89711       44.84957
H         23.80005       35.59681       42.88357
H         22.82125       34.22281       42.52627
H         17.23515       40.36211       40.14867
H         16.25835       40.43061       38.84157
H         20.51755       34.41331       42.44667
N          7.23195       36.79641       41.68557
N         10.95745       30.30761       43.55107
N         25.18865       33.31561       44.59487
C         26.49291       32.56801       44.55440
H         24.76415       33.52161       45.46017
H         27.01371       32.09676       45.53533
H         26.55309       31.55285       44.09751
H         27.31381       33.07036       43.85926
C         23.97045       35.63701       48.05637
C         24.60035       36.48411       49.26477
H         25.56525       36.03571       49.60957
H         24.78845       37.53921       48.96657
H         23.90245       36.52541       50.13327
O         24.41995       34.66551       47.42137
N         13.43855       32.60361       51.06527
C         13.12325       31.33231       51.83347
H         14.01365       33.36631       51.32317
H         13.58285       31.37871       52.82027
H         12.04285       31.23011       51.94087
H         13.51575       30.47171       51.29067
C         11.54815       35.67431       49.11787
C         11.79965       36.51811       50.24937
H         11.10075       37.26421       50.14757
H         11.66405       35.86421       51.09127
H         12.84165       36.91481       50.26787
O         10.96325       36.16631       48.13717
N         19.93735       45.47681       49.15287
C         19.88405       46.83151       49.83647
H         20.55925       44.67281       49.08317
H         20.61675       46.86251       50.64237
H         20.10845       47.61441       49.11157
H         18.88665       46.99311       50.24667
C         21.40855       43.21181       48.07907
C         22.02625       42.02621       48.63907
H         23.07395       42.02731       48.48707
H         21.76415       42.17061       49.68347
H         21.55725       41.12471       48.25847
O         22.05245       44.18981       47.75757
C          7.10075       39.03031       44.88887
C          7.30045       38.70181       46.34337
H          6.71285       39.39261       46.98517
H          7.03105       37.67741       46.60227
H          8.37305       38.82831       46.59447
O          6.42975       40.01491       44.60857
C          6.96505       36.07491       40.37477
H          7.02095       36.34271       42.56297
H          6.54925       35.08771       40.57937
H          6.25565       36.65071       39.78027
H          7.89835       35.96751       39.82187
C          5.90545       32.60441       45.31897
C          5.67575       31.41431       44.58627
H          4.64885       31.22071       44.64107
H          6.03085       31.62261       43.59377
H          6.28855       30.69261       45.08947
O          5.03305       33.26821       45.84317
N          6.13545       35.51401       46.17737
C          5.07825       36.30681       45.57457
H          6.10085       35.35801       47.19707
H          4.42135       36.72871       46.36427
H          5.47945       37.11991       44.95427
H          4.46115       35.66661       44.90977
C          9.84735       29.28501       43.37127
H         10.73285       31.29001       43.61967
H          8.88455       29.79511       43.33857
H         10.00135       28.74081       42.43947
H          9.85885       28.58481       44.20657
N         15.26565       32.17571       37.39847
C         15.58805       31.01321       36.61237
H         15.96855       32.77661       37.75607
H         15.21595       31.14251       35.57417
H         15.12295       30.11281       37.06517
H         16.68395       30.87701       36.57307
C         18.82655       29.67051       37.71807
H         17.91065       28.46641       39.09637
O         19.40275       30.71901       37.47657
C         18.63755       28.67061       36.61567
H         19.13425       27.71641       36.88977
H         19.07815       29.03671       35.66587
H         17.55415       28.48431       36.46107
C         16.84095       28.52921       44.04757
H         17.83425       28.66231       45.83287
C         17.36905       27.15351       43.77327
H         18.47895       27.17511       43.76197
H         17.00835       26.77761       42.79207
H         17.02505       26.45911       44.56887
O         16.12985       29.06161       43.20647
N         13.46465       38.12471       35.79287
C         12.51175       37.94171       34.71687
H         14.34665       37.59841       35.72257
H         11.58595       38.53701       34.86157
H         12.23205       36.86951       34.65307
H         12.97875       38.24921       33.75787
C         18.15545       32.78261       34.96597
H         19.32275       33.13281       36.64477
O         17.15055       33.09891       34.34457
C         19.09045       31.78551       34.35077
H         19.95395       31.57171       35.01357
H         19.47655       32.18061       33.38767
H         18.54035       30.84171       34.15757
O         16.12305       37.06981       40.16367
O         15.98185       36.77371       42.87897
P         16.62365       37.57261       41.47277
O         18.34265       37.45411       41.71487
C         19.04375       36.90551       40.66037
C         20.50425       36.86261       40.99937
C         14.65965       36.39091       42.77967
C         13.89625       37.42541       42.00707
O         16.08256       39.25461       41.39840
C         14.42869       41.01273       41.78034
C         13.59260       41.66864       42.71836
C         13.70121       41.38717       44.10456
C         14.67491       40.47558       44.51448
C         15.46135       39.85509       43.56054
C         15.36362       40.06510       42.23017
S         12.57893       42.09999       45.26509
H         18.68445       35.89381       40.47247
H         18.89535       37.51521       39.76907
H         21.05795       36.42931       40.16637
H         20.86355       37.87451       41.18727
H         20.65265       36.25291       41.89067
H         14.59675       35.43251       42.26417
H         14.23315       36.29491       43.77817
H         12.85195       37.12291       41.92857
H         13.95915       38.38371       42.52257
H         14.32265       37.52131       41.00857
H         14.30089       41.19766       40.72305
H         12.84486       42.36530       42.36586
H         14.81528       40.21467       45.55705
H         16.17982       39.15160       43.75836
C         13.00249       42.63874       46.81545
H         12.13435       43.00859       47.36779
H         13.69258       43.47590       46.64728
H         13.48481       41.85930       47.41109
C         11.73716       43.46253       44.50172
H         11.26953       43.21683       43.55273
H         12.54118       44.19444       44.35347
H         10.98034       43.88172       45.17423
