338
	Energy:     693.6458466
N         20.00280       35.69606       51.78603
C         19.40469       36.05671       50.50560
C         19.14792       37.54724       50.35454
O         18.82417       37.96183       49.24933
C         18.05758       35.31260       50.35624
C         18.14673       33.77487       50.39668
C         18.84235       33.15640       49.24101
O         19.47672       33.81929       48.44627
O         18.80662       31.82296       49.12136
H         19.51376       35.01958       52.38633
H         20.11887       35.77703       49.70209
H         17.54223       35.60905       49.41922
H         17.41412       35.62323       51.21009
H         17.11235       33.38147       50.40903
H         18.65842       33.39111       51.29930
C         21.17647       36.17817       52.26599
C         21.65332       35.67263       53.59081
H         22.54542       36.22366       53.94796
H         20.83317       35.78275       54.33327
H         21.89443       34.59345       53.48786
O         21.81684       37.02327       51.65654
N         19.25464       38.41971       51.39051
C         19.10320       39.84422       51.20893
H         19.44760       38.07901       52.34199
H         19.16377       40.35269       52.19293
H         19.92488       40.22199       50.56181
H         18.12357       40.07403       50.74063
N         18.51622       33.38545       36.07192
C         17.69457       34.39264       36.68885
C         18.14575       35.77488       36.34913
O         18.90389       35.97734       35.40854
N         17.64728       36.79325       37.08112
C         17.80287       38.20017       36.76599
C         16.46017       38.92864       36.77856
O         16.32481       39.92770       36.09180
N         15.46383       38.54752       37.63862
C         14.21782       39.24508       37.86259
C         13.21000       39.01136       36.78209
O         12.13266       39.57795       36.88506
N         18.43179       29.20218       38.94181
C         18.59215       30.02559       40.12098
C         17.72869       31.20966       39.99992
O         17.78118       31.91031       39.00380
C         20.07392       30.36229       40.41791
C         20.31083       31.16581       41.72089
C         20.34868       32.65810       41.55977
O         20.27489       33.18822       40.45916
O         20.49179       33.41742       42.66520
N         16.94563       31.53616       41.04946
C         16.24136       32.76739       41.11805
C         15.01931       32.84991       40.18381
O         14.19989       31.96196       40.26878
C         17.28440       33.82225       40.90994
S         16.44544       35.12601       41.40610
N         14.82230       33.89404       39.29083
C         13.74338       33.87573       38.31137
C         13.95021       32.67446       37.42826
O         12.97398       32.11548       36.93041
C         13.74728       35.16634       37.46559
N         17.18364       29.16153       45.16317
C         16.77905       30.49106       45.63562
C         15.59562       31.10687       44.90353
O         15.70311       32.23262       44.41853
C         18.01270       31.41539       45.60126
O         19.14841       30.76500       46.10384
N         14.42640       30.43550       44.77515
C         13.27027       30.98251       44.08434
C         12.20891       29.93840       43.82900
O         12.51809       28.74539       43.82479
N          7.35962       32.66642       45.43191
C          7.87518       33.92436       45.94800
C          6.97412       34.98489       45.39399
O          6.92782       35.11689       44.18677
C          9.30755       34.13188       45.42795
N          7.72027       38.38125       44.02217
C          8.11693       38.95973       42.74062
C          7.81946       38.12047       41.50463
O          8.10884       38.59741       40.41306
C          9.61865       39.27899       42.91074
C         10.39028       38.06795       43.38203
C         10.85195       37.84239       44.68207
C         10.77658       36.96779       42.65167
N         11.50257       36.66003       44.74812
C         11.46358       36.14119       43.50946
C         10.65476       36.67321       41.28874
C         12.07398       34.96789       43.06780
C         11.30181       35.52100       40.80872
C         12.00754       34.67366       41.69353
N         20.08058       43.09690       47.96659
C         19.16443       44.06341       47.36003
C         19.14964       45.39427       48.08390
O         18.40770       46.27168       47.66092
C         17.74143       43.45004       47.39659
C         17.78051       42.16048       46.62655
C         17.85032       42.19965       45.22881
C         17.84397       40.92244       47.29557
C         18.01472       41.02165       44.51201
C         18.01638       39.74769       46.56931
C         18.11345       39.80187       45.18698
N         12.60229       34.71210       49.59785
C         13.15621       33.61161       48.84185
C         12.95291       32.36860       49.67100
O         12.33983       31.41600       49.19985
C         14.66080       33.91357       48.74067
C         14.92117       34.99434       47.75479
C         14.89236       34.63579       46.41250
C         15.22608       36.31862       48.13023
C         15.20934       35.56073       45.44832
C         15.49722       37.26522       47.14807
C         15.50223       36.87777       45.81955
N         22.83238       36.29405       47.73832
C         22.02533       35.80737       46.63937
C         22.80517       35.80044       45.32629
O         23.34481       36.83253       44.95093
C         20.84375       36.76694       46.51615
C         19.89834       36.28645       45.51773
N         19.09140       35.22622       45.65567
C         19.71351       36.85182       44.30189
C         18.41130       35.16420       44.52247
N         18.78023       36.14670       43.68040
N         22.88446       34.66828       44.57042
C         23.56691       34.60695       43.28553
C         24.80493       33.74637       43.33032
O         25.38751       33.53064       42.27596
O         17.36833       40.76787       38.97725
H         17.70657       34.23168       37.77685
H         16.63960       34.33253       36.35170
H         17.14101       36.51844       37.93131
H         18.30835       38.34426       35.78446
H         18.45170       38.66820       37.53427
H         15.57018       37.72533       38.21047
H         14.40310       40.32442       38.02830
H         13.75547       38.84725       38.79271
H         18.22566       29.44908       40.99926
H         20.59721       30.86437       39.58021
H         20.53994       29.37075       40.56474
H         21.31620       30.91643       42.11353
H         19.56309       30.87886       42.49353
H         16.98420       30.98554       41.91793
H         15.84051       32.82197       42.15630
H         17.63596       34.03820       39.88950
H         18.14753       33.70185       41.57668
H         17.30027       35.42358       42.33182
H         15.46911       34.67978       39.20263
H         12.77036       33.80505       38.83321
H         12.99745       35.09589       36.64972
H         13.50063       36.05038       38.09279
H         14.73939       35.34868       37.00551
H         16.44620       30.36160       46.69050
H         17.80116       32.36902       46.14248
H         18.24908       31.68567       44.55076
H         19.27508       31.05585       47.03297
H         14.37717       29.47865       45.17163
H         13.56191       31.40500       43.09520
H         12.85501       31.81084       44.70206
H          8.00335       32.04549       44.92023
H          7.85203       33.92236       47.06116
H          9.71711       35.09579       45.77997
H          9.97024       33.30229       45.75160
H          9.30519       34.13440       44.31146
H          8.16119       37.49774       44.32080
H          7.59209       39.92183       42.56582
H          9.67344       40.03329       43.72923
H         10.08204       39.74329       42.01554
H         10.71821       38.50181       45.53104
H         11.96700       36.24811       45.58843
H         10.18338       37.35007       40.59873
H         12.64295       34.34176       43.74420
H         11.29587       35.32031       39.74751
H         12.53452       33.81319       41.31078
H         19.68166       42.26129       48.41142
H         19.45753       44.23991       46.29818
H         16.96150       44.12036       46.97420
H         17.48830       43.25838       48.46290
H         17.78506       43.14200       44.69946
H         17.80916       40.86913       48.37599
H         18.04996       41.04998       43.43069
H         18.08493       38.79309       47.06576
H         18.22505       38.89008       44.62868
H         12.96629       34.80798       50.55134
H         12.70013       33.48644       47.82740
H         15.25799       33.02779       48.43838
H         15.03705       34.24266       49.73052
H         14.65280       33.62532       46.12098
H         15.25061       36.62615       49.16555
H         15.22305       35.21799       44.42801
H         15.71976       38.29417       47.40153
H         15.73678       37.61692       45.10537
H         22.50278       37.12867       48.25065
H         21.65204       34.78354       46.87324
H         21.22950       37.76864       46.21647
H         20.28994       36.87702       47.46616
H         18.97179       34.57975       46.44399
H         20.21530       37.70920       43.87668
H         17.65656       34.41330       44.31867
H         22.42937       33.80552       44.90613
H         23.87555       35.61238       42.92856
H         22.86772       34.19853       42.52916
H         17.69959       40.66700       39.90189
H         16.39390       40.61322       39.03840
H         20.51959       34.38014       42.61726
N          7.24488       36.89410       41.56076
N         10.92414       30.29883       43.59947
N         25.31141       33.25863       44.49738
C         26.53723       32.49260       44.52683
H         24.84982       33.46022       45.39564
H         26.82062       32.26070       45.57523
H         26.40422       31.54335       43.96739
H         27.35707       33.08386       44.06447
C         23.99126       35.74633       48.16116
C         24.69013       36.41119       49.29971
H         25.63876       35.90371       49.55605
H         24.89534       37.46488       49.00972
H         24.01207       36.41323       50.17913
O         24.46279       34.75473       47.62470
N         13.41918       32.32764       50.95051
C         13.15654       31.23391       51.84174
H         13.95910       33.11718       51.33903
H         13.62024       31.44401       52.83000
H         12.05881       31.14150       51.98042
H         13.57977       30.30144       51.42209
C         11.75190       35.68902       49.22428
C         11.56428       36.76425       50.25072
H         10.87320       37.57376       49.96324
H         11.23697       36.28769       51.20257
H         12.57939       37.18936       50.43040
O         11.23208       35.73145       48.12001
N         19.92100       45.63161       49.18080
C         19.88935       46.89483       49.87262
H         20.55122       44.91219       49.55582
H         20.61983       46.87783       50.70837
H         20.15978       47.71263       49.17235
H         18.87198       47.06526       50.28256
C         21.43362       43.15380       47.97872
C         22.16079       42.02984       48.65465
H         23.25999       42.12187       48.56550
H         21.87074       42.01871       49.72834
H         21.83047       41.06959       48.19976
O         22.04099       44.08025       47.46189
C          7.09666       39.12924       44.96993
C          7.25585       38.76091       46.41512
H          6.68834       39.45328       47.06649
H          6.96418       37.73509       46.64059
H          8.33654       38.83871       46.66101
O          6.51136       40.15994       44.67716
C          6.97399       36.10191       40.37941
H          6.98607       36.50742       42.46370
H          6.52797       35.12452       40.66576
H          6.25796       36.64000       39.72394
H          7.91610       35.90707       39.82263
C          6.03079       32.34534       45.41501
C          5.59347       31.19239       44.59777
H          4.48753       31.09796       44.60275
H          5.92984       31.38567       43.55436
H          6.07774       30.28354       44.99575
O          5.18678       33.03383       45.97471
N          6.06315       35.60538       46.18342
C          4.98332       36.36888       45.59682
H          6.07565       35.45866       47.20481
H          4.32543       36.77278       46.39177
H          5.37540       37.19310       44.97673
H          4.38866       35.70366       44.93503
C          9.87867       29.32515       43.37100
H         10.66840       31.30172       43.61663
H          8.89670       29.83277       43.27558
H         10.08255       28.75455       42.43898
H          9.82810       28.61855       44.22837
N         15.19715       32.17629       37.24395
C         15.50322       30.97980       36.51689
H         15.99485       32.66421       37.66676
H         15.16373       31.08178       35.46913
H         15.02463       30.11132       37.01493
H         16.60248       30.82706       36.52706
C         18.85271       29.55544       37.69392
H         17.95976       28.29573       39.06724
O         19.42150       30.61763       37.48494
C         18.63569       28.61729       36.56370
H         19.13803       27.66253       36.81383
H         19.06957       29.02474       35.62913
H         17.54718       28.45080       36.42886
C         16.83073       28.52536       44.01186
H         17.83378       28.65843       45.78660
C         17.36594       27.14948       43.75075
H         18.47595       27.17767       43.74449
H         17.00800       26.76540       42.77316
H         17.02493       26.46373       44.55512
O         16.10907       29.04629       43.17865
N         13.45459       38.16955       35.73805
C         12.49757       37.93260       34.68321
H         14.34684       37.65929       35.67309
H         11.56529       38.51795       34.82250
H         12.23809       36.85443       34.65777
H         12.95574       38.22624       33.71755
C         18.17825       32.76733       34.91255
H         19.41474       33.16829       36.52882
O         17.14267       33.05419       34.32775
C         19.09532       31.75547       34.31243
H         19.97219       31.57201       34.96923
H         19.45739       32.13469       33.33612
H         18.54604       30.80473       34.16591
O         16.38646       37.46538       40.19896
O         15.91814       37.29620       42.87030
P         16.77690       38.11936       41.53605
O         18.52496       37.97751       41.67734
C         19.08192       37.19609       40.63063
C         20.56243       37.00133       40.91089
C         14.55342       36.91774       42.66161
C         13.77331       37.78807       41.75823
O         16.22312       39.71743       41.37361
C         14.43089       41.16097       41.80911
C         13.53341       41.69415       42.72234
C         13.59821       41.36120       44.09012
C         14.57306       40.48857       44.54819
C         15.44668       39.95518       43.61667
C         15.39519       40.28189       42.26017
S         12.30398       42.05874       45.07975
H         18.66761       36.17438       40.54924
H         18.96435       37.71257       39.65897
H         21.05809       36.45630       40.07999
H         21.03631       37.98957       41.06020
H         20.70673       36.40934       41.83112
H         14.40416       35.86897       42.35099
H         14.02383       36.92068       43.62783
H         12.87075       37.30116       41.59437
H         13.53123       38.70957       42.28852
H         14.17350       37.85008       40.74684
H         14.34837       41.38731       40.75266
H         12.76670       42.35347       42.34968
H         14.65679       40.19589       45.58688
H         16.17036       39.26858       43.93504
C         13.08046       42.65260       46.64716
H         12.24925       43.00273       47.30384
H         13.80050       43.48613       46.51884
H         13.52726       41.81992       47.23259
C         11.59245       43.63647       44.63443
H         11.08806       43.44319       43.66404
H         12.41924       44.35940       44.45510
H         10.84570       43.97238       45.36780
