[Molden Format]
[Title]
 Molden file created by orca_2mkl for BaseName=opt_bader

[Atoms] AU
H    1   1          1.0789073463        -3.6365840821         0.2035598254 
H    2   1          1.3877899708        -2.5363386152         1.0216819080 
[GTO]
  1 0
s   3 1.0 
       34.0613410000         0.2556300129
        5.1235746000         0.4613599287
        1.1646626000         0.6811215012
s   1 1.0 
        0.3272304100         0.3083545312
s   1 1.0 
        0.1030724100         0.1296483265
p   1 1.0 
        0.8000000000         1.0784563492

  2 0
s   3 1.0 
       34.0613410000         0.2556300129
        5.1235746000         0.4613599287
        1.1646626000         0.6811215012
s   1 1.0 
        0.3272304100         0.3083545312
s   1 1.0 
        0.1030724100         0.1296483265
p   1 1.0 
        0.8000000000         1.0784563492

[5D]
[7F]
[9G]
[MO]
 Sym=     1a
 Ene= -3.93527424682588E-01
 Spin= Alpha
 Occup= 2.000000
  1       0.192210858599
  2       0.287676981245
  3       0.130649364440
  4       0.003972006855
  5       0.014148369999
  6       0.010520467372
  7       0.192210859002
  8       0.287676977415
  9       0.130649368240
 10      -0.003972006679
 11      -0.014148369373
 12      -0.010520466905
 Sym=     1a
 Ene= 5.55832823348240E-02
 Spin= Alpha
 Occup= 0.000000
  1      -0.071825929055
  2      -0.046317544530
  3      -2.055232221026
  4       0.014713935753
  5       0.052410696260
  6       0.038971310782
  7       0.071825928837
  8       0.046317527025
  9       2.055232241027
 10       0.014713935810
 11       0.052410696404
 12       0.038971310912
 Sym=     1a
 Ene= 1.90568195910342E-01
 Spin= Alpha
 Occup= 0.000000
  1       0.074956547185
  2       0.676733518073
  3      -0.833142785616
  4       0.002106764873
  5       0.007504632665
  6       0.005580464583
  7       0.074956551273
  8       0.676733546418
  9      -0.833142771611
 10      -0.002106765296
 11      -0.007504634210
 12      -0.005580465748
 Sym=     1a
 Ene= 4.74871390281106E-01
 Spin= Alpha
 Occup= 0.000000
  1       0.085561066858
  2       1.863116520964
  3      -2.466766198501
  4       0.018305654350
  5       0.065206279523
  6       0.048486803981
  7      -0.085561064549
  8      -1.863116514120
  9       2.466766188050
 10       0.018305654252
 11       0.065206279120
 12       0.048486803727
 Sym=     1a
 Ene= 1.21707626545200E+00
 Spin= Alpha
 Occup= 0.000000
  1       0.000000469574
  2      -0.000001145139
  3       0.000000692708
  4      -0.461342808726
  5       0.290353028178
  6      -0.216299077339
  7      -0.000000469564
  8       0.000001145127
  9      -0.000000692703
 10      -0.461342808599
 11       0.290353028092
 12      -0.216299077283
 Sym=     1a
 Ene= 1.21708369001156E+00
 Spin= Alpha
 Occup= 0.000000
  1      -0.000007034504
  2       0.000017380133
  3      -0.000010725189
  4       0.338346522321
  5       0.221016509591
  6      -0.424971401748
  7       0.000007034471
  8      -0.000017380104
  9       0.000010725192
 10       0.338346522231
 11       0.221016509547
 12      -0.424971401617
 Sym=     1a
 Ene= 1.61514740392736E+00
 Spin= Alpha
 Occup= 0.000000
  1       0.377328339158
  2      -0.775851411670
  3       0.385569788404
  4       0.123835077178
  5       0.441118899907
  6       0.328016212477
  7       0.377328337080
  8      -0.775851414288
  9       0.385569784630
 10      -0.123835076155
 11      -0.441118896338
 12      -0.328016209845
 Sym=     1a
 Ene= 1.93668135569525E+00
 Spin= Alpha
 Occup= 0.000000
  1       0.000000277566
  2      -0.000000425516
  3       0.000000193524
  4       0.748196870578
  5      -0.476579637995
  6       0.358442632441
  7       0.000000277486
  8      -0.000000425106
  9       0.000000193417
 10      -0.748196870698
 11       0.476579637897
 12      -0.358442632588
 Sym=     1a
 Ene= 1.93676465727650E+00
 Spin= Alpha
 Occup= 0.000000
  1       0.000010508023
  2      -0.000013332548
  3       0.000005652461
  4       0.558027238661
  5       0.356757236921
  6      -0.690461949678
  7       0.000010508221
  8      -0.000013333731
  9       0.000005652981
 10      -0.558027238606
 11      -0.356757236555
 12       0.690461950050
 Sym=     1a
 Ene= 2.07506136232770E+00
 Spin= Alpha
 Occup= 0.000000
  1      -0.567924283321
  2       3.295372366450
  3      -1.610930126673
  4       0.296380770881
  5       1.055720369319
  6       0.785017433522
  7       0.567924281625
  8      -3.295372364812
  9       1.610930125761
 10       0.296380770942
 11       1.055720369380
 12       0.785017433114
 Sym=     1a
 Ene= 2.53740236039719E+00
 Spin= Alpha
 Occup= 0.000000
  1       1.069576996051
  2      -0.968375814136
  3       0.346589633605
  4      -0.092851914394
  5      -0.330729063358
  6      -0.245917754180
  7       1.069576991829
  8      -0.968375822745
  9       0.346589631850
 10       0.092851916444
 11       0.330729070641
 12       0.245917759590
 Sym=     1a
 Ene= 3.72992399268762E+00
 Spin= Alpha
 Occup= 0.000000
  1      -1.108837132027
  2      -1.371240137324
  3       0.181612181430
  4      -0.382505594417
  5      -1.362488062242
  6      -1.013118913270
  7       1.108837137521
  8       1.371240130406
  9      -0.181612177999
 10      -0.382505594283
 11      -1.362488061750
 12      -1.013118912892
