333
	Energy:     623.2737880
N         20.00059       35.69533       51.78936
C         19.40406       36.05543       50.50819
C         19.14834       37.54674       50.35617
O         18.82630       37.96108       49.25061
C         18.05710       35.31159       50.35519
C         18.14352       33.77324       50.39814
C         18.84597       33.14986       49.24746
O         19.48045       33.81041       48.45045
O         18.81200       31.81553       49.13196
H         19.51025       35.02071       52.39086
H         20.11893       35.77414       49.70583
H         17.54666       35.60742       49.41534
H         17.41033       35.62488       51.20561
H         17.10824       33.38229       50.40434
H         18.64637       33.39154       51.30667
C         21.17626       36.17584       52.26662
C         21.65564       35.67266       53.59138
H         22.55145       36.22175       53.94251
H         20.83908       35.78883       54.33672
H         21.89292       34.59230       53.49168
O         21.81760       37.01758       51.65359
N         19.25456       38.42000       51.39210
C         19.10156       39.84447       51.20915
H         19.44784       38.08025       52.34380
H         19.16566       40.35491       52.19200
H         19.92004       40.22221       50.55799
H         18.11984       40.07293       50.74450
N         18.51959       33.38623       36.06682
C         17.69731       34.39201       36.68605
C         18.14511       35.77548       36.34568
O         18.90014       35.97980       35.40335
N         17.64607       36.79265       37.07960
C         17.80080       38.20003       36.76594
C         16.45781       38.92730       36.77726
O         16.32277       39.92602       36.08940
N         15.46074       38.54685       37.63626
C         14.21562       39.24695       37.85811
C         13.20803       39.01296       36.77720
O         12.13048       39.57953       36.87956
N         18.43637       29.19360       38.94021
C         18.59630       30.01741       40.11959
C         17.73131       31.20195       39.99784
O         17.78794       31.90471       39.00345
C         20.07838       30.35531       40.41645
C         20.31383       31.16024       41.71917
C         20.34851       32.65324       41.55886
O         20.27330       33.18362       40.45856
O         20.49146       33.41277       42.66445
N         16.94199       31.52585       41.04431
C         16.23747       32.75831       41.11410
C         15.01734       32.84221       40.17928
O         14.19614       31.95434       40.26355
C         17.28007       33.81543       40.91211
S         16.44127       35.12799       41.40202
N         14.82112       33.88575       39.28657
C         13.74212       33.87037       38.30832
C         13.94805       32.67019       37.42297
O         12.97253       32.11125       36.92635
C         13.74510       35.16272       37.46538
N         17.18387       29.16004       45.16094
C         16.77960       30.48929       45.63401
C         15.59560       31.10539       44.90262
O         15.70244       32.23106       44.41806
C         18.01311       31.41405       45.59876
O         19.14959       30.76461       46.10118
N         14.42649       30.43330       44.77468
C         13.26989       30.98081       44.08484
C         12.20751       29.93718       43.83153
O         12.51518       28.74410       43.82998
N          7.36062       32.66231       45.42603
C          7.87252       33.92079       45.94539
C          6.96991       34.98122       45.39137
O          6.92323       35.11337       44.18400
C          9.30696       34.13162       45.43191
N          7.71845       38.38360       44.02238
C          8.11531       38.96101       42.74019
C          7.81700       38.12240       41.50375
O          8.10663       38.59927       40.41244
C          9.61773       39.27745       42.90824
C         10.38859       38.06590       43.37933
C         10.85193       37.84171       44.67886
C         10.77318       36.96448       42.64973
N         11.50146       36.65885       44.74565
C         11.46080       36.13866       43.50766
C         10.64809       36.66732       41.28782
C         12.06923       34.96415       43.06702
C         11.29248       35.51333       40.80868
C         11.99945       34.66713       41.69357
N         20.08011       43.09499       47.96977
C         19.16478       44.06133       47.36172
C         19.15044       45.39376       48.08423
O         18.41025       46.27146       47.65900
C         17.74189       43.44815       47.39583
C         17.78057       42.15870       46.62398
C         17.85091       42.19784       45.22581
C         17.84147       40.92020       47.29196
C         18.01024       41.01921       44.50766
C         18.01025       39.74505       46.56462
C         18.10388       39.79873       45.18121
N         12.60813       34.71554       49.60445
C         13.15787       33.61302       48.84744
C         12.95069       32.36804       49.67288
O         12.33530       31.41874       49.19951
C         14.66268       33.90901       48.74222
C         14.92297       34.99019       47.75605
C         14.89453       34.63366       46.41284
C         15.22599       36.31398       48.13293
C         15.21098       35.56095       45.44897
C         15.49823       37.26196       47.15197
C         15.50496       36.87764       45.82183
N         22.83492       36.29639       47.73919
C         22.02632       35.80855       46.64150
C         22.80459       35.80084       45.32701
O         23.34030       36.83390       44.94896
C         20.84355       36.76726       46.51911
C         19.89838       36.28753       45.51911
N         19.09240       35.22640       45.65481
C         19.71383       36.85472       44.30353
C         18.41357       35.16551       44.51992
N         18.78168       36.14982       43.67874
N         22.88657       34.66763       44.57253
C         23.56760       34.60676       43.28647
C         24.80583       33.74630       43.32922
O         25.38792       33.53114       42.27454
O         17.37411       40.77193       38.97771
H         17.71178       34.23050       37.77445
H         16.64196       34.33060       36.35055
H         17.14058       36.51743       37.93002
H         18.30847       38.34633       35.78597
H         18.44722       38.66765       37.53635
H         15.56598       37.72403       38.20847
H         14.40337       40.32620       38.02270
H         13.75140       38.85148       38.78794
H         18.23125       29.44041       40.99823
H         20.60247       30.85656       39.57864
H         20.54546       29.36410       40.56439
H         21.31946       30.91214       42.11226
H         19.56611       30.87179       42.49113
H         16.97558       30.97153       41.91038
H         15.83530       32.81421       42.15121
H         17.64015       34.02604       39.89323
H         18.13860       33.69081       41.58460
H         17.29337       35.42264       42.33407
H         15.47047       34.66986       39.19791
H         12.76899       33.79957       38.83093
H         12.99150       35.09624       36.65272
H         13.50274       36.04579       38.09584
H         14.73586       35.34381       37.00187
H         16.44767       30.35956       46.68913
H         17.80206       32.36774       46.13993
H         18.24791       31.68402       44.54775
H         19.27579       31.05528       47.03084
H         14.37783       29.47640       45.17054
H         13.56077       31.40166       43.09482
H         12.85616       31.81002       44.70224
H          8.00482       32.04520       44.91023
H          7.84605       33.91708       47.05846
H          9.71376       35.09614       45.78608
H          9.97033       33.30373       45.75895
H          9.30964       34.13419       44.31563
H          8.15714       37.49874       44.32058
H          7.59191       39.92402       42.56557
H          9.67457       40.03211       43.72608
H         10.08102       39.73996       42.01205
H         10.72006       38.50256       45.52696
H         11.96619       36.24743       45.58603
H         10.17504       37.34274       40.59765
H         12.63768       34.33837       43.74407
H         11.28300       35.30998       39.74796
H         12.52379       33.80475       41.31138
H         19.68073       42.26117       48.41811
H         19.45856       44.23634       46.29994
H         16.96259       44.11918       46.97325
H         17.48695       43.25637       48.46178
H         17.78908       43.14061       44.69688
H         17.80641       40.86695       48.37252
H         18.04714       41.04764       43.42644
H         18.07825       38.79074       47.06200
H         18.21296       38.88763       44.62145
H         12.97524       34.81546       50.55691
H         12.69961       33.49076       47.83365
H         15.25659       33.02136       48.43831
H         15.04186       34.23529       49.73194
H         14.65521       33.62306       46.12118
H         15.24827       36.61964       49.16906
H         15.22420       35.22158       44.42735
H         15.72000       38.29005       47.40846
H         15.74148       37.61913       45.10722
H         22.50721       37.13240       48.25049
H         21.65371       34.78491       46.87723
H         21.22877       37.76937       46.22043
H         20.29028       36.87653       47.46962
H         18.97414       34.57915       46.44375
H         20.21637       37.71333       43.88165
H         17.66026       34.41387       44.31396
H         22.43510       33.80371       44.91031
H         23.87606       35.61225       42.92951
H         22.86780       34.19811       42.53073
H         17.70485       40.66566       39.90232
H         16.39900       40.62026       39.03754
H         20.51848       34.37581       42.61695
N          7.24243       36.89587       41.56003
N         10.92328       30.29885       43.59975
N         25.31202       33.25751       44.49588
C         26.53703       32.49054       44.52605
H         24.85007       33.45849       45.39391
H         26.81700       32.25664       45.57491
H         26.40428       31.54240       43.96467
H         27.35857       33.08203       44.06709
C         23.99279       35.74621       48.16217
C         24.69400       36.40851       49.30103
H         25.64159       35.89793       49.55545
H         24.90183       37.46219       49.01306
H         24.01725       36.41030       50.18148
O         24.46142       34.75312       47.62608
N         13.41800       32.32301       50.95192
C         13.15574       31.22734       51.84142
H         13.95877       33.11117       51.34064
H         13.61965       31.43759       52.82955
H         12.05827       31.13357       51.98077
H         13.57992       30.29505       51.42201
C         11.75451       35.68856       49.22762
C         11.55796       36.76821       50.24769
H         10.86522       37.57269       49.94893
H         11.22319       36.29599       51.19882
H         12.56897       37.20001       50.43352
O         11.23437       35.72272       48.12311
N         19.92057       45.63196       49.18209
C         19.88885       46.89611       49.87312
H         20.54959       44.91217       49.55848
H         20.61753       46.87931       50.71055
H         20.16140       47.71370       49.17338
H         18.87105       47.06829       50.28137
C         21.43336       43.15169       47.97757
C         22.16453       42.02992       48.65326
H         23.26350       42.12736       48.56507
H         21.87495       42.01602       49.72699
H         21.83973       41.06859       48.19688
O         22.03856       44.07677       47.45581
C          7.09690       39.13270       44.97101
C          7.25337       38.76270       46.41639
H          6.68738       39.45630       47.06798
H          6.95772       37.73767       46.64104
H          8.33390       38.83713       46.66411
O          6.51534       40.16583       44.67896
C          6.97311       36.10257       40.37884
H          6.98344       36.50971       42.46311
H          6.52635       35.12581       40.66608
H          6.25849       36.63970       39.72106
H          7.91595       35.90612       39.82375
C          6.03279       32.33673       45.41518
C          5.59253       31.18346       44.59818
H          4.48631       31.09088       44.60608
H          5.92521       31.37542       43.55346
H          6.07477       30.27219       44.99332
O          5.19050       33.02219       45.98089
N          6.06047       35.60388       46.18137
C          4.98043       36.36907       45.59666
H          6.07442       35.45839       47.20294
H          4.32369       36.77316       46.39273
H          5.37186       37.19413       44.97693
H          4.38361       35.70500       44.93573
C          9.87787       29.32537       43.37026
H         10.66832       31.30185       43.61508
H          8.89633       29.83322       43.27160
H         10.08412       28.75378       42.43939
H          9.82507       28.61969       44.22823
N         15.19623       32.17256       37.23852
C         15.50016       30.97565       36.51119
H         15.99468       32.65902       37.66125
H         15.16060       31.07833       35.46358
H         15.01968       30.10843       37.00946
H         16.59927       30.82099       36.52169
C         18.85524       29.54820       37.69194
H         17.96520       28.28655       39.06544
O         19.42376       30.61064       37.48335
C         18.63561       28.61224       36.56023
H         19.13770       27.65656       36.80701
H         19.06792       29.02174       35.62580
H         17.54669       28.44695       36.42662
C         16.82983       28.52348       44.01010
H         17.83477       28.65701       45.78365
C         17.36529       27.14795       43.74863
H         18.47528       27.17666       43.74196
H         17.00711       26.76366       42.77119
H         17.02475       26.46235       44.55329
O         16.10680       29.04381       43.17771
N         13.45285       38.17051       35.73386
C         12.49574       37.93118       34.67969
H         14.34550       37.66094       35.66909
H         11.56273       38.51547       34.81862
H         12.23771       36.85259       34.65609
H         12.95321       38.22385       33.71342
C         18.17915       32.76559       34.90942
H         19.41964       33.17068       36.52141
O         17.14187       33.05038       34.32671
C         19.09545       31.75293       34.30907
H         19.97349       31.57064       34.96462
H         19.45558       32.13017       33.33127
H         18.54608       30.80178       34.16538
O         16.38517       37.46678       40.19781
O         15.91539       37.30753       42.86478
P         16.76610       38.13572       41.52947
O         18.51885       38.00672       41.66951
C         19.07808       37.21183       40.63181
C         20.55938       37.00882       40.91082
C         14.54978       36.92999       42.65997
C         13.76449       37.79319       41.75011
O         16.17318       39.72238       41.34539
C         14.37819       41.18890       41.79333
C         13.51090       41.77150       42.72321
C         13.62750       41.46476       44.09326
C         14.58917       40.55259       44.51689
C         15.42084       39.98039       43.58469
C         15.34874       40.29729       42.23260
C         12.73749       42.10635       45.09701
H         18.65896       36.19135       40.55697
H         18.96505       37.72112       39.65619
H         21.04998       36.45808       40.07979
H         21.04180       37.99381       41.05343
H         20.70434       36.41698       41.83140
H         14.40317       35.88020       42.35346
H         14.02202       36.93641       43.62755
H         12.86717       37.29642       41.57907
H         13.50618       38.71396       42.27565
H         14.16965       37.86091       40.74081
H         14.28827       41.40207       40.73578
H         12.75655       42.45992       42.37664
H         14.71097       40.27813       45.55890
H         16.13952       39.28890       43.91497
H         12.98104       41.76387       46.12706
H         12.88577       43.20400       45.04807
H         11.68623       41.84459       44.86980
