330
	Energy:     557.3767405
N         19.98583       35.69756       51.82366
C         19.40210       36.05156       50.53520
C         19.15357       37.54754       50.37566
O         18.83806       37.95810       49.26804
C         18.05672       35.30933       50.35056
C         18.12419       33.76774       50.41519
C         18.87853       33.10915       49.30734
O         19.51377       33.75133       48.49358
O         18.86634       31.76871       49.23215
H         19.48404       35.04007       52.43570
H         20.12404       35.75765       49.74367
H         17.58958       35.59736       49.38612
H         17.38018       35.64211       51.16977
H         17.08668       33.38767       50.37306
H         18.56133       33.40684       51.36540
C         21.17843       36.16356       52.27781
C         21.67858       35.68148       53.60284
H         22.60646       36.20889       53.90318
H         20.89500       35.85230       54.37160
H         21.87956       34.59150       53.53196
O         21.82905       36.97448       51.63375
N         19.25984       38.42809       51.40874
C         19.09180       39.85161       51.21646
H         19.46096       38.09679       52.36165
H         19.18216       40.37612       52.19049
H         19.88410       40.23087       50.53482
H         18.09360       40.06822       50.78143
N         18.55274       33.40159       36.02765
C         17.72476       34.39325       36.66810
C         18.14209       35.78784       36.32469
O         18.87802       36.00841       35.37247
N         17.63480       36.79502       37.07057
C         17.78534       38.20633       36.77188
C         16.44138       38.92626       36.76929
O         16.30958       39.91948       36.07047
N         15.43814       38.55233       37.62148
C         14.19959       39.27159       37.82271
C         13.19521       39.03559       36.73654
O         12.11802       39.60548       36.83092
N         18.48033       29.12988       38.93013
C         18.63355       29.95879       40.11055
C         17.75610       31.14813       39.98397
O         17.84186       31.86740       39.00346
C         20.11757       30.30330       40.40960
C         20.34283       31.11708       41.71056
C         20.34469       32.61404       41.55417
O         20.25080       33.14398       40.45577
O         20.49022       33.37698       42.65847
N         16.92061       31.45206       41.00652
C         16.20865       32.69102       41.08654
C         15.00495       32.78167       40.14287
O         14.17289       31.89518       40.21959
C         17.24464       33.77052       40.93815
S         16.40554       35.15266       41.36664
N         14.81780       33.82256       39.25330
C         13.73624       33.82795       38.28390
C         13.93526       32.63818       37.38022
O         12.96091       32.08273       36.88863
C         13.73176       35.13527       37.46699
N         17.19308       29.15391       45.14657
C         16.78967       30.48198       45.62403
C         15.60107       31.09747       44.89870
O         15.70347       32.22390       44.41442
C         18.02082       31.41085       45.58351
O         19.16011       30.77273       46.09539
N         14.43217       30.42359       44.77686
C         13.27025       30.97299       44.09779
C         12.19865       29.93516       43.86107
O         12.49214       28.73908       43.89103
N          7.36771       32.63510       45.38295
C          7.85011       33.89620       45.92818
C          6.93683       34.95458       45.37366
O          6.88763       35.08856       44.16556
C          9.29875       34.13769       45.46996
N          7.71291       38.41633       44.03078
C          8.11050       38.98444       42.74326
C          7.80190       38.14789       41.50670
O          8.09284       38.62217       40.41556
C          9.61901       39.27932       42.89326
C         10.38674       38.06376       43.36178
C         10.86108       37.84930       44.65805
C         10.76160       36.95242       42.63845
N         11.50418       36.66344       44.73104
C         11.45270       36.13240       43.49830
C         10.61415       36.63400       41.28506
C         12.04369       34.94609       43.06708
C         11.23273       35.46342       40.81571
C         11.94479       34.62435       41.70162
N         20.07701       43.09050       48.00334
C         19.16441       44.05589       47.38728
C         19.15594       45.39785       48.09729
O         18.42979       46.27817       47.65409
C         17.73924       43.44688       47.40466
C         17.78883       42.16119       46.62499
C         17.89573       42.20460       45.22717
C         17.82582       40.92073       47.28863
C         18.06843       41.02777       44.50739
C         18.00858       39.74736       46.56029
C         18.13816       39.80590       45.17821
N         12.65020       34.75052       49.66053
C         13.17188       33.63104       48.90118
C         12.93627       32.37763       49.70586
O         12.30019       31.45253       49.21741
C         14.67849       33.87846       48.76187
C         14.94165       34.96106       47.77422
C         14.91232       34.62141       46.42318
C         15.23596       36.27978       48.16458
C         15.22045       35.56685       45.46481
C         15.51119       37.23949       47.19508
C         15.51976       36.87601       45.85567
N         22.86281       36.32176       47.75364
C         22.04142       35.82818       46.66523
C         22.80675       35.81636       45.34111
O         23.31186       36.85667       44.94211
C         20.84792       36.77783       46.54862
C         19.90618       36.29868       45.53602
N         19.10818       35.23058       45.65891
C         19.72330       36.87117       44.31905
C         18.43753       35.17125       44.51358
N         18.79939       36.16271       43.67533
N         22.90784       34.67535       44.59874
C         23.57658       34.61510       43.30432
C         24.81700       33.75576       43.33315
O         25.39593       33.54770       42.27543
O         17.41471       40.82728       38.94375
H         17.76152       34.22541       37.75909
H         16.66550       34.31832       36.34953
H         17.13112       36.51463       37.92051
H         18.31237       38.37177       35.80570
H         18.41192       38.66801       37.56118
H         15.53654       37.72868       38.20185
H         14.40586       40.35006       37.97770
H         13.72014       38.89523       38.75051
H         18.27635       29.37838       40.99077
H         20.64711       30.79934       39.57140
H         20.59341       29.31520       40.56499
H         21.35380       30.88460       42.10205
H         19.60145       30.81268       42.48170
H         16.91784       30.86957       41.85272
H         15.78719       32.74710       42.11216
H         17.66825       33.94934       39.93595
H         18.06645       33.62069       41.65644
H         17.22260       35.41731       42.36662
H         15.48362       34.59476       39.16395
H         12.76450       33.75506       38.81458
H         12.94708       35.10092       36.68263
H         13.52522       36.00716       38.12645
H         14.71006       35.30855       36.97460
H         16.46462       30.35043       46.68110
H         17.80803       32.36719       46.11873
H         18.25115       31.67482       44.52942
H         19.27340       31.06452       47.02892
H         14.38743       29.46606       45.17145
H         13.55221       31.38481       43.10125
H         12.86894       31.80767       44.71554
H          8.01583       32.04924       44.83538
H          7.79886       33.87561       47.03991
H          9.67727       35.10732       45.84688
H          9.96502       33.32318       45.82586
H          9.34701       34.14636       44.35636
H          8.13267       37.52053       44.32468
H          7.59822       39.95442       42.56978
H          9.69393       40.03845       43.70490
H         10.07776       39.72933       41.98846
H         10.73962       38.51954       45.50005
H         11.96959       36.25572       45.57267
H         10.12522       37.29601       40.59313
H         12.60678       34.32097       43.74836
H         11.18933       35.23270       39.76099
H         12.44079       33.74204       41.32548
H         19.67748       42.26712       48.47395
H         19.46516       44.22104       46.32651
H         16.96655       44.12029       46.97282
H         17.46814       43.25370       48.46645
H         17.85354       43.14882       44.69889
H         17.76001       40.86518       48.36773
H         18.13795       41.05729       43.42762
H         18.06016       38.79169       47.05809
H         18.25741       38.90061       44.61433
H         13.03442       34.87715       50.60653
H         12.69849       33.52551       47.89353
H         15.23944       32.97408       48.44051
H         15.08367       34.18150       49.74824
H         14.67414       33.61248       46.12449
H         15.24847       36.56936       49.20630
H         15.22754       35.25904       44.43147
H         15.73036       38.26185       47.47226
H         15.75960       37.62420       45.14213
H         22.54979       37.16723       48.25860
H         21.67510       34.80521       46.91298
H         21.22566       37.78490       46.25924
H         20.29770       36.87691       47.50273
H         18.99864       34.58053       46.45278
H         20.22791       37.73842       43.91529
H         17.69439       34.41449       44.29547
H         22.48240       33.80459       44.95302
H         23.88021       35.62103       42.94436
H         22.87069       34.20248       42.55602
H         17.79601       40.71324       39.84890
H         16.44372       40.67310       39.05457
H         20.50812       34.34180       42.61103
N          7.22505       36.92157       41.56550
N         10.92166       30.30549       43.60400
N         25.32115       33.25417       44.49492
C         26.54019       32.47899       44.52544
H         24.85676       33.44653       45.39268
H         26.79863       32.22398       45.57495
H         26.40886       31.54162       43.94586
H         27.37336       33.07300       44.09188
C         24.01258       35.75080       48.17624
C         24.73411       36.39119       49.31711
H         25.67127       35.85428       49.55913
H         24.96694       37.44300       49.04330
H         24.06702       36.39551       50.20490
O         24.45695       34.74593       47.64185
N         13.41146       32.29850       50.97980
C         13.15200       31.18066       51.84640
H         13.96028       33.07547       51.37468
H         13.61827       31.37468       52.83640
H         12.05607       31.07486       51.98795
H         13.58033       30.25501       51.41362
C         11.77359       35.69411       49.25582
C         11.50777       36.80550       50.22454
H         10.80135       37.56407       49.84073
H         11.12283       36.36752       51.17149
H         12.48463       37.29178       50.44760
O         11.25690       35.66865       48.14903
N         19.91734       45.64193       49.20098
C         19.88825       46.91407       49.88213
H         20.53566       44.91861       49.58933
H         20.60178       46.89839       50.73288
H         20.18037       47.72606       49.18340
H         18.86669       47.10278       50.27400
C         21.43141       43.14803       47.97753
C         22.19595       42.04251       48.64574
H         23.29152       42.17975       48.55375
H         21.91825       42.01139       49.72169
H         21.90803       41.07280       48.18336
O         22.01766       44.06644       47.42364
C          7.10698       39.17436       44.98517
C          7.23607       38.78796       46.43085
H          6.68597       39.49496       47.08313
H          6.89902       37.77193       46.64509
H          8.31468       38.82667       46.69534
O          6.55841       40.22772       44.69908
C          6.96791       36.12036       40.38527
H          6.96310       36.53947       42.47002
H          6.51481       35.14761       40.67537
H          6.26599       36.65189       39.70939
H          7.91737       35.91331       39.84478
C          6.05035       32.27139       45.41962
C          5.59203       31.11333       44.60915
H          4.48556       31.02232       44.65082
H          5.88653       31.30023       43.55286
H          6.07419       30.19152       44.98134
O          5.22078       32.92997       46.03330
N          6.04043       35.59284       46.16886
C          4.96253       36.37544       45.59943
H          6.06582       35.45388       47.19101
H          4.31975       36.78419       46.40603
H          5.35434       37.20381       44.98181
H          4.34522       35.72363       44.94570
C          9.87360       29.33646       43.36917
H         10.67538       31.31087       43.59844
H          8.89773       29.84858       43.24136
H         10.09739       28.75192       42.45050
H          9.79900       28.64210       44.23470
N         15.18805       32.14045       37.19178
C         15.47614       30.94168       36.46036
H         15.99347       32.61581       37.61454
H         15.13619       31.05119       35.41371
H         14.98162       30.08223       36.95787
H         16.57363       30.77125       36.47253
C         18.88355       29.49242       37.67832
H         18.01829       28.21725       39.05515
O         19.44896       30.55682       37.47120
C         18.64196       28.57147       36.53588
H         19.14136       27.60739       36.75244
H         19.05780       28.99606       35.60039
H         17.54964       28.41548       36.41532
C         16.82597       28.51276       44.00191
H         17.85335       28.65391       45.76157
C         17.36419       27.14015       43.73544
H         18.47384       27.17401       43.72058
H         17.00043       26.75473       42.76029
H         17.03107       26.45456       44.54289
O         16.08768       29.02591       43.17891
N         13.44096       38.18512       35.70029
C         12.48233       37.92670       34.65171
H         14.33566       37.67906       35.63880
H         11.54336       38.50225       34.78797
H         12.23519       36.84513       34.64280
H         12.93289       38.21074       33.67964
C         18.19018       32.75720       34.88917
H         19.46832       33.20427       36.45891
O         17.13574       33.02062       34.32821
C         19.10043       31.73956       34.28394
H         19.99189       31.56936       34.92453
H         19.43873       32.09821       33.29134
H         18.55227       30.78370       34.16769
O         16.41004       37.56653       40.20049
O         15.91791       37.39172       42.85475
P         16.78283       38.22683       41.54010
O         18.53980       38.10489       41.68177
C         19.08455       37.29501       40.64746
C         20.56718       37.05488       40.90223
C         14.54073       37.04997       42.64827
C         13.74853       37.88656       41.68985
O         16.20078       39.82617       41.37851
C         14.38545       41.28216       41.81058
C         13.48563       41.84397       42.72437
C         13.56502       41.52036       44.08687
C         14.52408       40.61798       44.53164
C         15.39394       40.05764       43.61716
C         15.35385       40.38769       42.26105
H         12.88477       41.95777       44.80006
H         18.63333       36.28668       40.59255
H         18.97817       37.80001       39.66760
H         21.01684       36.47346       40.06770
H         21.09139       38.02459       41.00298
H         20.71662       36.47106       41.82923
H         14.39466       35.99547       42.36806
H         14.01484       37.09039       43.61900
H         12.84927       37.36369       41.49204
H         13.45514       38.82908       42.16336
H         14.18636       37.96063       40.69450
H         14.31605       41.51123       40.75465
H         12.72726       42.52651       42.37653
H         14.60586       40.34157       45.57590
H         16.10823       39.36412       43.96737
