575
	Energy:    1039.8830439
C         -9.19073       -8.57567      -10.03870
O         -8.76681       -8.08966      -11.07642
N         -8.46093       -8.50019       -8.88972
C         -7.19039       -7.78475       -8.75993
C         -6.42179       -8.21525       -7.50996
O         -6.87606       -9.05486       -6.74582
C         -7.39268       -6.24293       -8.81596
C         -8.29305       -5.64809       -7.74950
C         -7.74933       -4.96121       -6.64782
C         -9.69187       -5.71374       -7.88225
C         -8.58869       -4.37829       -5.69473
C        -10.52718       -5.11495       -6.93238
C         -9.97779       -4.45428       -5.83342
O        -10.79001       -3.89827       -4.91752
N         -3.02867       -0.16683       -2.15105
C         -3.56376        0.32398       -0.85403
C         -2.91368       -0.42454        0.30363
O         -2.81531       -1.64364        0.28438
C         -5.12185        0.17707       -0.83077
C         -5.79426        1.04577       -1.93028
C         -5.70997        0.59900        0.54373
C         -7.20785        0.56990       -2.27702
N         -5.29223        2.48068        6.36309
C         -5.14557        2.38795        4.90103
C         -4.91975        3.75259        4.24597
O         -5.47512        4.75595        4.67289
C         -6.38521        1.70732        4.27010
C         -6.61658        0.21472        4.64817
C         -7.90940       -0.28640        3.97020
C         -5.42164       -0.69784        4.27741
N         -4.17106        3.80307        3.11021
C         -3.93456        4.99421        2.30115
C         -3.56532        4.56092        0.88546
O         -2.71967        3.69517        0.70844
C         -2.83279        5.88018        2.92593
C         -2.56341        7.17198        2.11756
C         -1.54250        8.06260        2.77910
O         -0.59014        7.54534        3.57986
O         -1.53483        9.26000        2.53907
N         -4.21032        5.12082       -0.17203
C         -3.96936        4.78114       -1.57162
C         -2.62786        5.31335       -2.03233
O         -2.26562        6.43455       -1.70615
C         -5.11793        5.38501       -2.42038
C         -5.07720        5.06550       -3.89881
C         -5.60759        3.92280       -4.48629
C         -4.57501        5.82702       -4.95112
N         -5.43763        3.95845       -5.82830
C         -4.80647        5.11579       -6.10646
C         -3.93642        7.07076       -4.98527
C         -4.41072        5.59766       -7.36338
C         -3.52385        7.57534       -6.23551
C         -3.75780        6.84326       -7.41782
N         -3.11459       -8.52660       -2.56034
C         -4.27064       -7.82432       -1.98250
C         -5.23125       -7.37369       -3.08447
O         -4.80991       -6.74626       -4.05164
C         -3.75733       -6.66418       -1.10346
N         -6.55731       -7.62725       -2.96828
C         -7.58552       -7.16662       -3.87180
C         -8.68974       -8.16764       -3.97406
O         -8.60755       -9.23503       -3.38896
N         -9.77851       -7.89792       -4.69759
C        -10.94195       -8.76495       -4.81263
C        -10.56877      -10.12996       -5.41326
O         -9.96391      -10.18434       -6.46746
C        -11.98615       -8.00354       -5.64443
C        -13.33723       -8.70636       -5.86851
C        -14.08633       -9.00792       -4.54784
C        -14.19650       -7.87320       -6.85116
N        -10.91804      -11.27744       -4.77450
C        -13.11389      -11.02746       -1.14153
O        -12.90337      -11.22301       -2.31964
N        -12.33076      -10.20898       -0.39837
C        -11.09392       -9.60526       -0.84266
C         -9.97776      -10.06761        0.07611
O        -10.18559      -10.23123        1.27291
C        -11.20342       -8.07703       -0.82619
N         -8.74281      -10.26059       -0.43546
C         -7.54178      -10.54814        0.31316
C         -6.89550       -9.26538        0.76103
O         -7.05448       -8.25223        0.13018
C         -6.53470      -11.29966       -0.59656
C         -6.85156      -12.75967       -0.78710
O         -7.45914      -13.37520        0.07676
N         -6.37852      -13.41948       -1.86893
N         -6.13495       -9.24310        1.86849
C         -5.33333       -8.10110        2.30359
C         -3.98374       -8.62989        2.76704
O         -3.78045       -9.83260        2.87716
C         -6.05383       -7.33120        3.43785
C         -7.15306       -6.38585        2.99173
C         -8.51617       -6.61370        3.12966
C         -7.04577       -5.12137        2.40732
N         -9.22610       -5.56453        2.65013
C         -8.33054       -4.65896        2.21168
C         -5.93912       -4.36295        1.99071
C         -8.58898       -3.41786        1.60726
C         -6.17726       -3.12310        1.35825
C         -7.49259       -2.64940        1.17606
C        -19.83561        8.06886       -0.20254
O        -18.71034        7.62652       -0.36186
N        -20.38752        8.11597        1.03380
C        -19.63003        7.93228        2.26090
C        -19.78315        6.51874        2.78675
O        -20.87993        5.97730        2.81166
C        -20.08472        8.98400        3.32143
C        -19.37258        8.81315        4.67916
C        -19.87109       10.42547        2.82123
N        -18.68417        5.90158        3.28984
C        -18.62504        4.63479        3.98839
C        -18.01299        4.84623        5.36332
O        -17.53091        5.92049        5.67507
C        -17.77950        3.64783        3.16000
O        -18.49864        3.26748        2.02021
N        -17.16864        2.84621        9.71781
C        -16.23730        1.76500        9.32988
C        -15.93896        0.79659       10.46275
O        -16.20876        1.07136       11.62276
N         -7.41888       -5.18214        8.45521
C         -8.05137       -4.18193        7.56433
C         -9.51979       -3.89928        7.93051
O        -10.12965       -4.70714        8.61695
C         -7.95925       -4.65911        6.10758
N        -10.16094       -2.75305        7.53004
C        -11.53857       -2.42574        7.88835
C        -12.58998       -3.38227        7.34084
O        -12.28855       -4.27497        6.56057
C        -11.75334       -1.02117        7.30891
C        -10.35414       -0.44631        7.25960
C         -9.50617       -1.64776        6.86800
N        -18.71404       -3.94476        6.97755
C        -17.94846       -2.67887        7.00287
C        -18.52941       -1.70102        8.00098
O        -18.72111       -0.54340        7.68049
N        -21.75996        0.55182        7.84650
C        -22.17388        1.70005        7.02399
C        -21.51657        1.66773        5.64759
O        -20.29944        1.65748        5.52337
C        -21.86319        3.04145        7.76854
C        -22.61638        3.13995        9.12174
C        -22.13814        4.29975        6.91016
C        -24.12999        3.38462        9.01467
N        -22.33161        1.75448        4.56810
C        -21.89228        1.96202        3.19754
C        -22.99889        2.62555        2.40326
O        -24.16591        2.56399        2.76926
C        -21.34919        0.68038        2.53568
C        -22.27083       -0.51497        2.66366
C        -22.03763       -1.46999        3.66395
C        -23.34797       -0.70963        1.78904
C        -22.84266       -2.59879        3.79716
C        -24.16148       -1.84227        1.91742
C        -23.91052       -2.78937        2.92143
O        -24.69214       -3.87809        3.04981
N        -22.66175        3.39328        1.33957
N        -14.50555        7.03368        5.33002
C        -13.96181        6.99462        3.96928
C        -14.91342        7.46386        2.88865
O        -16.07849        7.70728        3.16642
N        -14.46214        7.66808        1.63181
C        -15.22627        8.14007        0.47322
C        -14.31437        8.18674       -0.74666
O        -13.37408        7.39930       -0.79996
C        -15.92524        9.52858        0.79038
O        -16.72166       10.03538       -0.24092
C        -14.94319       10.63993        1.12335
N        -14.56392        8.95229       -1.82140
C        -13.71034        9.10814       -2.97110
C        -13.55760       10.59863       -3.26544
O        -14.24667       11.42588       -2.67831
C        -14.36694        8.36844       -4.15114
C        -14.42038        6.86098       -3.98072
C        -13.46580        5.98842       -4.48869
C        -15.37879        6.04732       -3.37036
N        -13.79846        4.70628       -4.21598
C        -14.96123        4.74483       -3.53720
C        -16.57304        6.33490       -2.70035
C        -15.69995        3.65858       -3.04195
C        -17.32903        5.25976       -2.18650
C        -16.89441        3.93028       -2.35307
N        -16.73798        7.71196       -8.96522
C        -16.01469        7.24374       -7.76244
C        -14.52773        7.12893       -8.03611
O        -13.95386        6.04963       -7.99098
C        -16.61458        5.96390       -7.11592
C        -18.09568        6.08412       -6.66413
C        -18.59341        4.74748       -6.06636
C        -18.33985        7.26241       -5.68562
N         -9.84382        6.69449       -3.83115
C        -10.34939        6.46088       -2.46891
C         -9.56747        7.06582       -1.29143
O         -8.34493        7.04350       -1.25374
C        -10.35349        4.94145       -2.35453
C         -9.22161        4.46187       -3.26079
C         -8.77895        5.71031       -4.02683
N        -10.29129        7.49762       -0.21673
C         -9.80711        7.84732        1.10731
C        -10.47304        6.93324        2.12854
O        -11.52170        6.36529        1.85300
C        -10.02178        9.35244        1.45127
C         -9.18195       10.23382        0.51818
C        -11.49184        9.81963        1.42711
N         -9.84485        6.65111        3.29503
C        -10.32456        5.63890        4.22751
C        -10.60257        6.24838        5.58322
O        -10.24097        7.38792        5.84091
C         -9.26081        4.52340        4.31923
C         -8.95896        3.93354        2.95753
C         -9.70521        2.84883        2.47264
C         -7.93540        4.47347        2.15206
C         -9.43722        2.32749        1.20447
C         -7.68763        3.95387        0.87794
C         -8.44500        2.88680        0.40320
H         -8.82217       -9.00759       -8.08063
H         -6.52789       -8.07877       -9.60495
H         -7.79801       -5.94420       -9.80456
H         -6.39690       -5.75449       -8.75781
H         -6.67871       -4.87865       -6.51456
H        -10.13848       -6.20732       -8.73281
H         -8.16562       -3.86325       -4.84907
H        -11.60276       -5.16468       -7.04687
H        -10.43037       -3.43051       -4.15607
H         -2.35063       -0.95784       -2.03664
H         -3.34006        1.40465       -0.70853
H         -5.36104       -0.89150       -1.01580
H         -5.23577        1.01206       -2.88515
H         -5.82039        2.10454       -1.59137
H         -6.81415        0.54790        0.56252
H         -5.36059       -0.06806        1.35278
H         -5.42497        1.64602        0.79828
H         -7.12762       -0.31183       -2.94687
H         -7.80060        0.29823       -1.38153
H         -7.76462        1.35239       -2.83112
H         -5.90580        3.29036        6.61494
H         -4.26637        1.75477        4.65305
H         -6.27665        1.74593        3.16202
H         -7.28944        2.29144        4.53705
H         -6.77728        0.10766        5.74319
H         -8.79405        0.15285        4.47792
H         -7.94974       -0.01038        2.89633
H         -8.00205       -1.39248        4.04423
H         -5.74386       -1.64392        3.79241
H         -4.69359       -0.21153        3.60270
H         -4.88615       -0.99738        5.20508
H         -3.79545        2.90988        2.77112
H         -4.87249        5.59306        2.24734
H         -1.89392        5.29318        3.00515
H         -3.15560        6.17611        3.94790
H         -3.50899        7.74808        2.01129
H         -2.20031        6.93597        1.09398
H         -4.91990        5.83980        0.03410
H         -4.00499        3.67757       -1.70356
H         -5.17945        6.48206       -2.27960
H         -6.07138        4.96828       -2.02117
H         -6.09953        3.11686       -3.95928
H         -5.74614        3.22425       -6.50377
H         -3.75289        7.63490       -4.08294
H         -4.58926        5.04064       -8.27573
H         -3.01953        8.53239       -6.29439
H         -3.43020        7.24673       -8.37111
H         -2.86409       -8.11080       -3.48867
H         -4.80858       -8.49028       -1.26746
H         -4.54762       -6.14779       -0.53880
H         -3.10689       -7.06090       -0.29769
H         -3.20803       -5.90586       -1.69183
H         -6.87302       -8.06009       -2.09731
H         -7.17351       -6.94439       -4.86966
H         -8.05762       -6.24131       -3.48415
H         -9.78068       -6.98995       -5.18386
H        -11.37215       -8.91596       -3.80079
H        -11.52710       -7.77143       -6.62719
H        -12.18858       -7.03367       -5.12297
H        -13.14363       -9.68158       -6.36452
H        -15.11851       -8.60306       -4.53281
H        -14.17903      -10.10991       -4.43262
H        -13.57466       -8.60863       -3.65054
H        -14.13848       -8.32413       -7.86490
H        -15.27011       -7.84526       -6.57641
H        -13.84469       -6.82109       -6.93540
H        -11.44256      -11.19289       -3.91794
H        -12.60924      -10.04137        0.57874
H        -10.84767       -9.90700       -1.88386
H        -10.23873       -7.62241       -1.13962
H        -11.98555       -7.73569       -1.53918
H        -11.45880       -7.70806        0.18849
H         -8.61511      -10.04321       -1.41029
H         -7.78153      -11.12983        1.22431
H         -5.51733      -11.26632       -0.15903
H         -6.44908      -10.79348       -1.58993
H         -6.54041      -14.43165       -1.97785
H         -5.84468      -12.92128       -2.59617
H         -6.08083      -10.12294        2.39962
H         -5.12103       -7.40649        1.45888
H         -5.35365       -6.70273        4.01694
H         -6.46414       -8.09294        4.13653
H         -8.95862       -7.50872        3.54657
H        -10.26745       -5.49219        2.62182
H         -4.92935       -4.72844        2.10243
H         -9.59508       -3.05368        1.44261
H         -5.34647       -2.53135        0.99536
H         -7.65905       -1.69713        0.68308
H        -21.38092        8.38000        1.11479
H        -18.54703        8.12572        2.06931
H        -21.17161        8.84766        3.50249
H        -19.70823        9.60273        5.38663
H        -19.63559        7.83884        5.14196
H        -18.26863        8.87939        4.57715
H        -20.22216       11.14874        3.59002
H        -18.79867       10.62906        2.61279
H        -20.45927       10.61632        1.89983
H        -17.80596        6.39980        3.23264
H        -19.64146        4.23408        4.15048
H        -17.54493        2.74313        3.75869
H        -16.81788        4.12579        2.85009
H        -17.95503        2.56930        1.57029
H        -16.84403        3.33142       10.58669
H         -8.11375       -5.85769        8.84595
H         -7.45339       -3.25105        7.62230
H         -8.38003       -3.90509        5.40982
H         -6.89803       -4.82216        5.81913
H         -8.51016       -5.61276        5.96600
H        -11.59363       -2.41709        8.99685
H        -12.47630       -0.40584        7.88118
H        -12.09194       -1.09829        6.25503
H        -10.07762       -0.14896        8.29598
H        -10.22849        0.42994        6.58831
H         -9.52108       -1.84608        5.78243
H         -8.47473       -1.43977        7.22306
H        -18.16000       -4.70506        6.52381
H        -16.96805       -2.92940        7.45851
H        -20.73499        0.44141        7.75955
H        -23.27212        1.65870        6.89177
H        -20.78489        3.03866        8.01203
H        -22.19096        3.97903        9.71515
H        -22.43277        2.20938        9.69642
H        -21.94043        5.21740        7.50522
H        -21.47355        4.33836        6.02196
H        -23.18960        4.33141        6.55290
H        -24.59594        3.25512       10.01399
H        -24.33452        4.42633        8.68370
H        -24.62192        2.68403        8.31332
H        -23.33456        1.82602        4.77022
H        -21.07842        2.72036        3.21250
H        -20.38263        0.43633        3.02398
H        -21.10460        0.85750        1.46369
H        -21.24160       -1.33425        4.35463
H        -23.55081        0.00269        1.00214
H        -22.63342       -3.31841        4.58214
H        -24.98613       -1.98860        1.23459
H        -25.44409       -4.02944        2.46030
H        -21.67420        3.45459        1.05589
H        -15.42457        6.56406        5.34226
H        -13.65649        5.94993        3.74062
H        -13.05390        7.62625        3.93363
H        -13.45775        7.49657        1.50856
H        -16.00344        7.37755        0.24172
H        -16.59416        9.40022        1.65766
H        -17.38409        9.36160       -0.47703
H        -15.53105       11.56539        1.31236
H        -14.35574       10.39735        2.02658
H        -14.26917       10.84205        0.26322
H        -15.43513        9.47582       -1.87845
H        -12.68832        8.70332       -2.77640
H        -13.78525        8.57974       -5.06870
H        -15.39265        8.75674       -4.32194
H        -12.57517        6.28388       -5.02919
H        -13.24820        3.86154       -4.48860
H        -16.91497        7.35039       -2.57179
H        -15.37566        2.63286       -3.17144
H        -18.25417        5.44643       -1.65720
H        -17.48841        3.11661       -1.94710
H        -17.71630        7.97972       -8.71435
H        -16.09033        8.03683       -6.99331
H        -16.00909        5.71276       -6.21811
H        -16.51788        5.10867       -7.81905
H        -18.71140        6.25221       -7.57365
H        -19.58317        4.49348       -6.50870
H        -17.91047        3.90450       -6.29815
H        -18.71840        4.78330       -4.96421
H        -19.04885        7.00716       -4.86960
H        -17.40008        7.58673       -5.19167
H        -18.76332        8.13283       -6.22845
H        -11.39805        6.81427       -2.39611
H        -11.30123        4.60152       -2.82935
H        -10.34608        4.52674       -1.32291
H         -9.62641        3.68520       -3.95101
H         -8.37084        4.03489       -2.69331
H         -7.83795        6.08872       -3.57201
H         -8.58626        5.50187       -5.10186
H        -11.29407        7.46945       -0.29733
H         -8.72103        7.63190        1.15650
H         -9.64424        9.51596        2.48350
H         -9.25709       11.29824        0.82778
H         -8.11342        9.93725        0.58111
H         -9.51862       10.14431       -0.53670
H        -11.55221       10.89705        1.70171
H        -11.94746        9.70041        0.42159
H        -12.09645        9.26709        2.17324
H         -8.94351        7.11040        3.48693
H        -11.28262        5.19375        3.87249
H         -9.57689        3.71828        5.01458
H         -8.32601        4.95880        4.73590
H        -10.49166        2.40846        3.07276
H         -7.33970        5.30560        2.50114
H         -9.99690        1.49181        0.83515
H         -6.91371        4.37745        0.25450
H         -8.26268        2.49075       -0.58382
C        -14.92109        2.35758        8.75249
C        -14.78629        2.14319        7.26336
C        -14.68365        3.22900        6.38104
C        -14.73166        0.83654        6.74681
C        -14.52994        3.00609        5.00830
C        -14.57228        0.61614        5.37791
C        -14.47114        1.70215        4.50692
O        -14.31688        1.49449        3.18869
H        -14.72066        4.24457        6.75298
H        -14.80496       -0.01239        7.40633
H        -14.45315        3.84457        4.33318
H        -14.52479       -0.39727        4.99785
C         -9.33380       -2.21473       -1.91700
C        -10.47582       -1.44837       -1.89022
C        -11.72108       -2.07137       -1.69689
C        -11.81126       -3.45957       -1.54684
C        -10.65542       -4.21771       -1.57468
C         -9.43349       -3.56387       -1.75707
O        -12.83253       -1.34591       -1.56377
P        -13.04683       -0.61652       -0.03954
O        -14.56321       -0.37606        0.18949
O        -12.50636       -1.76586        1.14922
O        -12.07633        0.82179        0.08208
C        -11.83066       -1.09840        2.18641
C        -11.85159       -2.04569        3.36455
C        -12.80748        1.97981       -0.19185
C        -12.74710        2.29436       -1.67519
H        -10.36806       -0.38108       -1.97730
H        -10.71013       -5.29073       -1.40861
S         -8.02052       -4.47644       -1.55744
H        -10.77403       -0.87482        1.90376
H        -12.33064       -0.15093        2.49692
H        -11.26502       -1.63956        4.20621
H        -12.90661       -2.20542        3.67486
H        -11.42364       -3.02244        3.05534
H        -13.85003        1.95784        0.19204
H        -12.29525        2.79142        0.36295
H        -13.14914        3.31312       -1.83759
H        -11.69462        2.25531       -2.02903
H        -13.34511        1.55831       -2.25050
C        -17.59172       -2.04523        5.60271
C        -16.76663       -3.01254        4.75052
C        -18.72749       -1.47696        4.74362
H        -16.96455       -1.15815        5.82993
H        -15.83448       -3.28126        5.28420
H        -17.34122       -3.93804        4.52887
H        -16.73930        1.15705        8.54613
H        -14.02946        1.87990        9.21461
H        -14.84591        3.43616        9.01655
C         -5.04289       -7.68097       -7.24637
C         -2.35883        0.87068       -2.93412
C         -2.43751        0.33327        1.50525
C         -4.00499        2.61079        7.04954
C         -1.79340        4.51978       -2.99198
C         -3.34655       -9.95700       -2.73283
C         -2.85672       -7.69095        3.04037
C        -18.09313        3.78746        6.40678
C        -18.54948        2.37482        9.89906
C        -15.36813       -0.55344       10.13089
C         -6.69938       -4.56007        9.57261
C        -14.01879       -3.23595        7.78192
C        -20.06135       -3.89460        6.40881
C        -18.77010       -2.11312        9.42643
C        -22.41527       -0.71103        7.49513
C        -14.63350        8.39140        5.86586
C        -12.54874       11.09124       -4.24959
C        -16.77510        6.76442      -10.08782
C        -13.73993        8.37897       -8.29655
C         -9.46386        8.06904       -4.16908
C        -11.38254        5.47424        6.60354
C        -10.61666      -12.62750       -5.21177
C        -10.53610       -9.26819      -10.04281
C        -20.61088        8.55722       -1.38257
C        -23.63149        4.18675        0.62807
C        -14.23754      -11.73129       -0.49242
H         -4.40731       -7.83345       -8.14337
H         -4.57077       -8.20816       -6.38911
H         -5.08892       -6.60057       -7.00984
H         -3.05853        1.69908       -3.16552
H         -2.01120        0.43934       -3.89824
H         -1.47589        1.25761       -2.38489
H         -1.66197        1.06874        1.21710
H         -2.03830       -0.35134        2.28283
H         -3.29837        0.87444        1.94025
H         -3.38386        1.70521        6.87547
H         -4.18288        2.69085        8.14275
H         -3.45457        3.51484        6.71162
H         -2.40941        4.25095       -3.87594
H         -1.43324        3.59679       -2.50469
H         -0.92204        5.10916       -3.35012
H         -3.47458      -10.44070       -1.74093
H         -2.45407      -10.40581       -3.21796
H         -4.23629      -10.14309       -3.37019
H         -2.66289       -7.09781        2.12426
H         -1.93570       -8.25701        3.29724
H         -3.10993       -7.01413        3.87685
H        -19.15936        3.69041        6.66257
H        -17.54174        4.08922        7.32247
H        -17.69771        2.82119        6.04221
H        -18.92659        1.90338        8.96717
H        -19.21133        3.23760       10.12851
H        -18.62675        1.64678       10.73401
H        -15.99855       -1.02740        9.34946
H        -15.36137       -1.21966       11.01829
H        -14.33719       -0.45733        9.73839
H         -5.84709       -3.95300        9.19360
H         -6.27903       -5.35049       10.23037
H         -7.37699       -3.91747       10.17441
H        -14.05737       -3.29157        8.88953
H        -14.66399       -4.04202        7.37060
H        -14.42461       -2.25971        7.45652
H        -20.68292       -3.12694        6.90926
H        -20.54717       -4.88426        6.52782
H        -20.03257       -3.73707        5.32667
H        -19.50633       -2.94092        9.47183
H        -19.15260       -1.26166       10.03211
H        -17.81466       -2.45667        9.87287
H        -23.50637       -0.63755        7.67943
H        -22.01965       -1.52237        8.14559
H        -22.22802       -0.99329        6.44104
H        -13.63184        8.86441        5.93517
H        -15.05789        8.34256        6.89214
H        -15.30730        9.01746        5.24297
H        -11.54067       10.80650       -3.88822
H        -12.58931       12.19989       -4.33443
H        -12.73461       10.64793       -5.24559
H        -15.75103        6.51154      -10.43311
H        -17.30935        7.23614      -10.94162
H        -17.32938        5.83936       -9.82508
H        -14.12388        8.88859       -9.20216
H        -12.65902        8.15817       -8.42525
H        -13.85127        9.06251       -7.42760
H        -10.33468        8.74001       -4.02909
H         -9.17348        8.11534       -5.24184
H         -8.61142        8.42680       -3.55473
H        -12.38872        5.25226        6.18949
H        -11.51258        6.06091        7.53794
H        -10.87079        4.52177        6.84128
H         -8.36260       -1.78826       -2.01372
H        -11.07457      -13.35179       -4.49724
H        -11.04083      -12.83621       -6.21596
H         -9.52201      -12.80220       -5.20684
H        -10.94790       -9.32822      -11.07291
H        -10.48012      -10.29994       -9.63261
H        -11.25461       -8.68725       -9.42540
H        -20.01151        8.46839       -2.31365
H        -21.54856        7.97659       -1.47352
H        -20.85323        9.63387       -1.22699
H        -23.11826        4.72107       -0.19594
H        -24.42910        3.53629        0.21420
H        -24.07650        4.93945        1.31748
H        -14.79277      -12.35247       -1.22630
H        -13.79025      -12.38760        0.28313
H        -14.90344      -10.98060       -0.02814
H        -12.76519       -3.93573       -1.35883
H        -16.49696       -2.53829        3.78410
H        -18.30075       -0.83236        3.94766
H        -19.39954       -0.84356        5.35195
H        -19.27246       -2.24925        4.17347
C         -7.26096       -5.81328       -0.85423
H         -6.35280       -5.95942       -1.38019
H         -8.04929       -6.57298       -0.99241
H         -7.02698       -5.66021        0.16325
C         -6.64004       -3.87308       -2.64383
H         -6.87899       -2.92562       -3.15639
H         -6.39502       -4.60440       -3.44243
H         -5.74128       -3.65598       -2.02734
