567
	Energy:    1633.9866071
C         -9.15920       -8.60680      -10.04690
O         -8.75440       -8.11670      -11.09430
N         -8.42400       -8.55030       -8.92310
C         -7.14850       -7.77490       -8.76450
C         -6.43600       -8.24670       -7.49610
O         -6.88820       -9.07750       -6.70410
C         -7.38660       -6.23360       -8.79650
C         -8.29630       -5.62550       -7.73560
C         -7.74650       -4.95580       -6.61980
C         -9.69530       -5.68860       -7.88390
C         -8.59060       -4.37130       -5.65670
C        -10.53910       -5.10200       -6.91960
C         -9.98860       -4.44960       -5.80340
O        -10.81640       -3.90440       -4.86970
N         -3.00930       -0.18920       -2.16390
C         -3.55230        0.31020       -0.86680
C         -2.88750       -0.46300        0.28030
O         -2.66720       -1.67790        0.25260
C         -5.11860        0.22710       -0.80590
C         -5.81520        1.04840       -1.92030
C         -5.71960        0.62050        0.56490
C         -7.22320        0.54600       -2.28390
N         -5.28500        2.49270        6.36220
C         -5.14180        2.37240        4.87970
C         -4.94470        3.78490        4.23470
O         -5.49480        4.78230        4.71990
C         -6.37650        1.68130        4.24300
C         -6.61690        0.20420        4.63340
C         -7.91730       -0.30350        3.98140
C         -5.42630       -0.71960        4.29560
N         -4.17600        3.83330        3.13890
C         -3.96020        5.00580        2.30000
C         -3.61220        4.48560        0.90060
O         -2.83950        3.53150        0.79100
C         -2.85200        5.89800        2.91150
C         -2.54440        7.18760        2.11830
C         -1.49490        8.07870        2.78970
O         -0.63040        7.55630        3.52250
O         -1.54100        9.30550        2.56870
N         -4.18290        5.10470       -0.14260
C         -3.95520        4.77130       -1.56280
C         -2.60850        5.34990       -2.01570
O         -2.15260        6.42870       -1.62570
C         -5.14510        5.32200       -2.38940
C         -5.15470        5.02750       -3.86430
C         -5.64480        3.90500       -4.43900
C         -4.59830        5.82570       -4.95520
N         -5.44920        3.96620       -5.80380
C         -4.80680        5.12490       -6.18180
C         -3.93470        7.07340       -5.03500
C         -4.38530        5.63570       -7.42160
C         -3.50500        7.59610       -6.27260
C         -3.73010        6.88030       -7.46510
N         -3.10770       -8.50370       -2.55940
C         -4.27950       -7.81950       -1.94210
C         -5.26190       -7.32770       -3.05320
O         -4.81040       -6.83730       -4.09480
C         -3.81630       -6.65390       -1.05330
N         -6.57180       -7.46540       -2.81460
C         -7.62030       -7.09510       -3.76350
C         -8.71340       -8.16650       -3.78500
O         -8.63460       -9.17160       -3.07070
N         -9.75580       -7.91360       -4.58900
C        -10.94280       -8.76080       -4.76370
C        -10.56810      -10.14250       -5.38870
O         -9.93430      -10.13310       -6.44980
C        -11.98680       -7.96670       -5.59540
C        -13.32760       -8.68270       -5.86490
C        -14.08540       -9.01790       -4.56250
C        -14.19230       -7.87420       -6.85530
N        -10.96140      -11.26980       -4.77520
C        -13.05740      -10.99810       -1.24070
O        -12.81310      -11.22680       -2.41940
N        -12.35000      -10.17390       -0.47600
C        -11.08400       -9.60140       -0.88120
C         -9.97860      -10.08430        0.06180
O        -10.23120      -10.29340        1.25080
C        -11.20410       -8.05590       -0.84750
N         -8.77100      -10.22850       -0.49350
C         -7.53790      -10.50280        0.24710
C         -6.90630       -9.16930        0.65260
O         -7.04620       -8.18010       -0.07030
C         -6.54420      -11.28790       -0.64930
C         -6.82920      -12.78520       -0.77530
O         -7.42410      -13.40280        0.10510
N         -6.37370      -13.40950       -1.85440
N         -6.14410       -9.20240        1.75090
C         -5.32730       -8.09400        2.27570
C         -4.00700       -8.68890        2.77020
O         -3.81090       -9.89330        2.96440
C         -6.07740       -7.36740        3.42200
C         -7.18020       -6.44070        3.00160
C         -8.50710       -6.67760        3.11830
C         -7.05940       -5.13970        2.34910
N         -9.20870       -5.59000        2.63680
C         -8.37010       -4.61200        2.14450
C         -5.97170       -4.34660        1.91120
C         -8.58840       -3.35550        1.55390
C         -6.18010       -3.09610        1.29430
C         -7.48610       -2.59860        1.11800
C        -19.76730        8.14310       -0.21620
O        -18.57220        7.91760       -0.41970
N        -20.34160        8.12730        1.00170
C        -19.57500        7.96920        2.23130
C        -19.73960        6.52750        2.75600
O        -20.83500        5.96180        2.68750
C        -20.05850        8.97980        3.31640
C        -19.38530        8.81780        4.69700
C        -19.87950       10.43280        2.83390
N        -18.64950        5.98460        3.30610
C        -18.57320        4.68090        3.99460
C        -17.90790        4.90780        5.35110
O        -17.24910        5.90770        5.65010
C        -17.76160        3.66820        3.15110
O        -18.51290        3.19880        2.04430
N        -17.20040        2.85240        9.72210
C        -16.24310        1.77360        9.33620
C        -15.94480        0.80230       10.48860
O        -16.06620        1.08670       11.68460
N         -7.40440       -5.18510        8.45620
C         -8.03370       -4.18740        7.54610
C         -9.51770       -3.92550        7.98810
O        -10.10050       -4.77950        8.67370
C         -7.94870       -4.65690        6.08460
N        -10.12180       -2.77150        7.59400
C        -11.55520       -2.47190        7.85330
C        -12.61210       -3.41360        7.28300
O        -12.37690       -4.27930        6.43880
C        -11.73240       -1.03360        7.30580
C        -10.33690       -0.44250        7.26100
C         -9.47460       -1.64570        6.91590
N        -18.71390       -3.95830        6.99160
C        -17.94770       -2.67690        7.03230
C        -18.56930       -1.65620        7.99680
O        -18.89190       -0.50960        7.68120
N        -21.69770        0.50150        7.82040
C        -22.16650        1.67410        7.02300
C        -21.46860        1.68570        5.62100
O        -20.23990        1.62170        5.52690
C        -21.88840        3.04030        7.75040
C        -22.61800        3.15850        9.11300
C        -22.13740        4.32050        6.90820
C        -24.13410        3.40240        9.02130
N        -22.27540        1.79470        4.56120
C        -21.85770        2.00620        3.17980
C        -23.03950        2.65720        2.44950
O        -24.18230        2.48920        2.88330
C        -21.35980        0.69160        2.52610
C        -22.25580       -0.53220        2.66720
C        -21.99600       -1.48160        3.67940
C        -23.33700       -0.73430        1.78560
C        -22.82070       -2.61520        3.81600
C        -24.16190       -1.86960        1.92190
C        -23.90410       -2.80890        2.93890
O        -24.69730       -3.90840        3.07990
N        -22.70400        3.38450        1.38890
N        -14.57800        7.02770        5.33440
C        -14.00880        6.95660        3.98580
C        -15.00480        7.35380        2.86090
O        -16.22130        7.41430        3.06390
N        -14.46760        7.61490        1.67370
C        -15.18470        8.09460        0.48060
C        -14.17700        8.14540       -0.69650
O        -13.13330        7.49220       -0.63470
C        -15.91450        9.46820        0.73220
O        -16.71330        9.86630       -0.36840
C        -14.98320       10.64520        1.07050
N        -14.48150        8.92580       -1.74050
C        -13.67960        9.12790       -2.95860
C        -13.61130       10.63150       -3.23090
O        -14.33360       11.47760       -2.69590
C        -14.33220        8.37420       -4.14640
C        -14.38100        6.87520       -4.05100
C        -13.43100        6.02900       -4.51190
C        -15.38430        6.03360       -3.40110
N        -13.80000        4.72920       -4.23100
C        -14.98890        4.66860       -3.53720
C        -16.59220        6.28250       -2.70260
C        -15.75050        3.60800       -3.01690
C        -17.35900        5.23000       -2.16810
C        -16.94220        3.89160       -2.32470
N        -16.75280        7.70070       -8.97790
C        -16.01150        7.23360       -7.76840
C        -14.50610        7.09660       -8.02650
O        -13.89800        6.02310       -8.04850
C        -16.62110        5.96620       -7.10130
C        -18.09790        6.09120       -6.65130
C        -18.61370        4.75340       -6.07820
C        -18.33130        7.26530       -5.67630
N         -9.83050        6.68650       -3.82510
C        -10.38220        6.46460       -2.46930
C         -9.59890        7.08170       -1.25410
O         -8.36390        7.16790       -1.23920
C        -10.39410        4.92510       -2.38180
C         -9.24630        4.44550       -3.28220
C         -8.77110        5.70140       -4.01830
N        -10.34540        7.48700       -0.22000
C         -9.84370        7.83610        1.10600
C        -10.59640        6.96630        2.12770
O        -11.73250        6.56050        1.87250
C        -10.04460        9.34490        1.43880
C         -9.18050       10.23710        0.52990
C        -11.50610        9.83770        1.44070
N         -9.94260        6.67590        3.25810
C        -10.35510        5.63860        4.22570
C        -10.59620        6.29240        5.58530
O        -10.18830        7.41270        5.90780
C         -9.25790        4.54010        4.30140
C         -8.90520        3.88730        2.97100
C         -9.68700        2.82580        2.46940
C         -7.91150        4.45360        2.14280
C         -9.44200        2.32330        1.19810
C         -7.68770        3.94220        0.87230
C         -8.45130        2.88280        0.40270
H         -8.72050       -9.04400       -8.08970
H         -6.49060       -8.04690       -9.59400
H         -7.80250       -5.96320       -9.76840
H         -6.42770       -5.71330       -8.76880
H         -6.67390       -4.88720       -6.49440
H        -10.12480       -6.18250       -8.74290
H         -8.14880       -3.86520       -4.80950
H        -11.61210       -5.15700       -7.04340
H        -10.34020       -3.48040       -4.14240
H         -2.35030       -0.94610       -1.97790
H         -3.28980        1.36000       -0.71800
H         -5.38400       -0.81850       -0.97730
H         -5.22530        1.00800       -2.83450
H         -5.85150        2.10150       -1.63980
H         -6.80690        0.57860        0.56320
H         -5.39700       -0.04720        1.36190
H         -5.43660        1.63710        0.83940
H         -7.16750       -0.28170       -2.99150
H         -7.77860        0.19160       -1.41640
H         -7.81070        1.33680       -2.75070
H         -5.83760        3.33500        6.53680
H         -4.25500        1.79000        4.61850
H         -6.30890        1.73230        3.15490
H         -7.27120        2.24330        4.51420
H         -6.76200        0.16300        5.71410
H         -8.79030        0.05600        4.52560
H         -8.01460        0.04620        2.95270
H         -7.97220       -1.39250        3.96110
H         -5.73330       -1.61240        3.75070
H         -4.67620       -0.22500        3.68040
H         -4.92960       -1.05700        5.20580
H         -3.75830        2.98870        2.76960
H         -4.89070        5.57440        2.24280
H         -1.93430        5.31460        3.00170
H         -3.12990        6.17530        3.92900
H         -3.46270        7.76150        1.98570
H         -2.18250        6.94370        1.11920
H         -4.83970        5.85220        0.03570
H         -3.94280        3.68420       -1.67690
H         -5.21350        6.40570       -2.27380
H         -6.08060        4.93460       -1.98210
H         -6.12120        3.09680       -3.89970
H         -5.74920        3.22290       -6.42830
H         -3.75330        7.63450       -4.12890
H         -4.55840        5.08070       -8.33320
H         -2.99990        8.55210       -6.30530
H         -3.39930        7.28500       -8.41190
H         -3.04250       -8.11910       -3.50660
H         -4.83430       -8.50200       -1.29560
H         -4.66270       -6.13750       -0.59710
H         -3.17710       -7.00940       -0.24540
H         -3.24870       -5.91440       -1.62000
H         -6.88070       -7.84970       -1.92160
H         -7.22850       -6.98060       -4.77440
H         -8.04910       -6.13990       -3.45940
H         -9.72070       -7.09230       -5.17420
H        -11.36220       -8.93210       -3.76250
H        -11.53010       -7.72060       -6.55230
H        -12.18570       -7.01750       -5.10050
H        -13.11280       -9.62940       -6.36190
H        -15.09290       -8.60430       -4.53490
H        -14.19030      -10.09730       -4.44870
H        -13.58260       -8.64650       -3.66980
H        -14.20540       -8.35570       -7.83420
H        -15.23190       -7.78350       -6.54110
H        -13.81580       -6.86090       -6.99660
H        -11.52490      -11.21850       -3.94810
H        -12.58410      -10.07880        0.49850
H        -10.82230       -9.91800       -1.89850
H        -10.25850       -7.59570       -1.12770
H        -11.96370       -7.71310       -1.53900
H        -11.45840       -7.70400        0.15080
H         -8.65800       -9.91670       -1.45980
H         -7.80070      -11.09540        1.12630
H         -5.54590      -11.23000       -0.21210
H         -6.46510      -10.82150       -1.63220
H         -6.51650      -14.40240       -1.96800
H         -5.87000      -12.91350       -2.57720
H         -6.05850      -10.07410        2.25880
H         -5.08390       -7.37850        1.48700
H         -5.38900       -6.74690        3.99800
H         -6.47770       -8.08870        4.13740
H         -8.93410       -7.57640        3.54480
H        -10.22170       -5.55310        2.64270
H         -4.96300       -4.70920        2.04630
H         -9.58950       -2.97350        1.42530
H         -5.33180       -2.51410        0.96140
H         -7.64390       -1.63840        0.64890
H        -21.34610        8.27760        1.11440
H        -18.51810        8.15080        2.03550
H        -21.12760        8.82660        3.47080
H        -19.68780        9.61100        5.38140
H        -19.65230        7.87660        5.17840
H        -18.29780        8.85090        4.61440
H        -20.20850       11.14710        3.58910
H        -18.83500       10.64870        2.60550
H        -20.46150       10.63460        1.93380
H        -17.77900        6.52090        3.27910
H        -19.56660        4.26910        4.18390
H        -17.48250        2.79070        3.73810
H        -16.82750        4.10640        2.79230
H        -17.94860        2.56380        1.57460
H        -16.87190        3.30580       10.57270
H         -8.19950       -5.67010        8.88510
H         -7.47410       -3.25450        7.60880
H         -8.36630       -3.92590        5.39150
H         -6.91370       -4.82240        5.78390
H         -8.48620       -5.59340        5.93080
H        -11.66740       -2.44190        8.93920
H        -12.40560       -0.42900        7.91500
H        -12.13470       -1.03490        6.28950
H        -10.06440       -0.06950        8.24970
H        -10.23630        0.38240        6.55430
H         -9.48950       -1.83940        5.84410
H         -8.44720       -1.45010        7.21760
H        -18.16200       -4.69550        6.55610
H        -16.96850       -2.89890        7.45930
H        -20.68570        0.37190        7.67830
H        -23.24390        1.61380        6.85410
H        -20.82520        3.04950        7.99460
H        -22.17070        3.97560        9.68070
H        -22.43530        2.26520        9.71140
H        -21.97080        5.21890        7.50170
H        -21.47070        4.38810        6.04890
H        -23.16010        4.35740        6.53320
H        -24.61340        3.20530        9.98060
H        -24.35370        4.43660        8.75440
H        -24.60980        2.75820        8.28260
H        -23.27990        1.84570        4.68220
H        -21.03670        2.72540        3.18020
H        -20.38450        0.44550        2.94900
H        -21.16560        0.86360        1.46590
H        -21.16610       -1.33910        4.35800
H        -23.54460       -0.01850        1.00090
H        -22.61700       -3.33400        4.59740
H        -24.98800       -2.00290        1.23780
H        -25.41140       -3.94530        2.42650
H        -21.75240        3.47510        1.09800
H        -15.51530        6.59960        5.34560
H        -13.69450        5.93360        3.78080
H        -13.12220        7.59050        3.91940
H        -13.47880        7.43510        1.51230
H        -15.93380        7.33190        0.22960
H        -16.61150        9.35650        1.55940
H        -17.45340        9.22620       -0.42970
H        -15.55600       11.55210        1.26620
H        -14.40160       10.43740        1.96870
H        -14.28230       10.87070        0.26670
H        -15.32680        9.48670       -1.64250
H        -12.65680        8.77250       -2.81790
H        -13.81260        8.61150       -5.07550
H        -15.35650        8.72050       -4.28850
H        -12.52750        6.33770       -5.02380
H        -13.22890        3.93560       -4.49850
H        -16.92640        7.30130       -2.57060
H        -15.41930        2.58540       -3.12860
H        -18.26870        5.44980       -1.62700
H        -17.52790        3.08720       -1.90400
H        -17.70050        7.97210       -8.72120
H        -16.08630        8.02290       -7.02040
H        -16.02320        5.69520       -6.22930
H        -16.52840        5.12000       -7.78390
H        -18.69030        6.28990       -7.54590
H        -19.54490        4.45570       -6.56150
H        -17.90120        3.94160       -6.22910
H        -18.80440        4.79870       -5.00550
H        -18.95650        6.99050       -4.82760
H        -17.39800        7.64540       -5.26310
H        -18.83010        8.08980       -6.18630
H        -11.39960        6.85490       -2.42720
H        -11.35820        4.54640       -2.72320
H        -10.28830        4.54880       -1.36120
H         -9.58990        3.67920       -3.97810
H         -8.43670        4.02170       -2.68670
H         -7.80680        6.05590       -3.64640
H         -8.60480        5.53060       -5.08430
H        -11.35990        7.37060       -0.26610
H         -8.78250        7.58930        1.18470
H         -9.67080        9.49500        2.45410
H         -9.24450       11.28500        0.82470
H         -8.13000        9.94820        0.57820
H         -9.49270       10.16830       -0.51270
H        -11.56180       10.89600        1.69730
H        -11.96460        9.71980        0.45970
H        -12.11980        9.30610        2.16710
H         -9.01360        7.05110        3.38800
H        -11.28530        5.15620        3.91280
H         -9.57050        3.74810        4.98430
H         -8.33880        4.94850        4.72770
H        -10.48730        2.40550        3.06270
H         -7.32820        5.29370        2.49180
H        -10.04300        1.50980        0.81720
H         -6.92890        4.37870        0.24020
H         -8.27930        2.49710       -0.59080
C        -14.91370        2.35480        8.75720
C        -14.77830        2.13170        7.25040
C        -14.67930        3.21970        6.37710
C        -14.72540        0.82990        6.74620
C        -14.52550        3.00070        5.00740
C        -14.56840        0.61680        5.37990
C        -14.46560        1.70020        4.50920
O        -14.30520        1.48770        3.25480
H        -14.72160        4.23370        6.75050
H        -14.80090       -0.01900        7.40750
H        -14.45370        3.84110        4.33470
H        -14.52070       -0.39200        4.99650
C         -9.27659       -2.34640       -1.93300
C        -10.39908       -1.52215       -1.84879
C        -11.63805       -2.09283       -1.60344
C        -11.78185       -3.47151       -1.49338
C        -10.64921       -4.27977       -1.54829
C         -9.38701       -3.72058       -1.74883
O        -12.73783       -1.30531       -1.45829
P        -13.06653       -0.60747       -0.03306
O        -14.55056       -0.50307        0.17489
O        -12.41499       -1.62169        1.04680
O        -12.16379        0.70814        0.00275
C        -11.80188       -1.04735        2.19350
C        -11.86029       -2.04565        3.32934
C        -12.79798        1.95986       -0.18720
C        -12.74017        2.29132       -1.65795
H        -10.29578       -0.44537       -1.95444
H        -10.74394       -5.35329       -1.43070
Au        -8.35445       -4.60609       -1.73941
H        -10.76155       -0.81711        1.94540
H        -12.30173       -0.12278        2.48145
H        -11.27657       -1.69195        4.18131
H        -12.89433       -2.19601        3.65370
H        -11.47928       -3.02309        3.01838
H        -13.82955        1.94804        0.17590
H        -12.25322        2.71243        0.38898
H        -13.10594        3.30401       -1.82378
H        -11.71614        2.21113       -2.03634
H        -13.34526        1.58801       -2.23837
C        -17.65560       -2.07710        5.62800
C        -16.79526       -3.02042        4.76576
C        -18.76021       -1.49759        4.75662
H        -17.11140       -1.13680        5.74120
H        -15.84122       -3.26090        5.27280
H        -17.34187       -3.96224        4.54555
H        -16.70200        1.17430        8.54720
H        -14.02460        1.91430        9.21420
H        -14.83000        3.41970        8.98300
C         -5.04130       -7.68680       -7.25320
C         -2.35850        0.85660       -2.94630
C         -2.47040        0.33660        1.50740
C         -4.00800        2.60450        7.06360
C         -1.80710        4.52440       -3.01170
C         -3.32220       -9.93990       -2.73120
C         -2.86880       -7.70820        3.01840
C        -18.10290        3.82820        6.40200
C        -18.57420        2.38520        9.90000
C        -15.38820       -0.56450       10.10990
C         -6.68820       -4.56890        9.57200
C        -14.03390       -3.23540        7.79610
C        -20.04630       -3.89520        6.38770
C        -18.76360       -2.10220        9.44080
C        -22.39560       -0.74060        7.50650
C        -14.65020        8.37780        5.88440
C        -12.55310       11.09260       -4.22450
C        -16.79090        6.77210      -10.10880
C        -13.73720        8.38940       -8.26780
C         -9.46850        8.05820       -4.18840
C        -11.39910        5.48030        6.59240
C        -10.64120      -12.64570       -5.18080
C        -10.57400       -9.28670      -10.01650
C        -20.60040        8.59020       -1.36370
C        -23.61760        4.18920        0.65550
C        -14.17120      -11.71350       -0.51390
H         -4.42560       -7.79340       -8.14500
H         -4.55770       -8.21850       -6.43440
H         -5.09680       -6.63320       -6.98540
H         -3.04210        1.67730       -3.17060
H         -2.00210        0.45580       -3.89670
H         -1.49700        1.26720       -2.41600
H         -1.69610        1.05330        1.23670
H         -2.07910       -0.32320        2.28070
H         -3.31830        0.88300        1.91380
H         -3.38600        1.72320        6.89550
H         -4.17170        2.69110        8.13910
H         -3.44620        3.48410        6.74300
H         -2.43200        4.22940       -3.85350
H         -1.42260        3.63020       -2.52480
H         -0.96470        5.10010       -3.39300
H         -3.45860      -10.43890       -1.76960
H         -2.45960      -10.39860       -3.21780
H         -4.19830      -10.14730       -3.34960
H         -2.68980       -7.10140        2.13250
H         -1.95130       -8.24400        3.25880
H         -3.10840       -7.04940        3.85140
H        -19.15370        3.74800        6.66770
H        -17.53680        4.06450        7.30250
H        -17.76040        2.86160        6.03430
H        -18.94680        1.91200        8.98940
H        -19.23470        3.22290       10.12940
H        -18.65940        1.66410       10.71490
H        -15.97860       -1.00400        9.30840
H        -15.41080       -1.23710       10.96670
H        -14.35710       -0.46880        9.77310
H         -5.85160       -3.96220        9.21960
H         -6.28170       -5.33560       10.23380
H         -7.34360       -3.93080       10.16860
H        -14.04980       -3.25950        8.88470
H        -14.67490       -4.03350        7.42370
H        -14.43680       -2.28300        7.45740
H        -20.68300       -3.16100        6.88330
H        -20.54490       -4.86290        6.46690
H        -19.99820       -3.64100        5.32730
H        -19.47960       -2.92180        9.47820
H        -19.14080       -1.28120       10.04930
H        -17.82010       -2.44660        9.86020
H        -23.46820       -0.64840        7.68660
H        -22.02240       -1.55010        8.13550
H        -22.24740       -1.03150        6.46640
H        -13.66120        8.83670        5.94110
H        -15.06200        8.35160        6.89450
H        -15.29340        9.02200        5.28180
H        -11.56100       10.80700       -3.87850
H        -12.58000       12.17650       -4.33150
H        -12.72710       10.64890       -5.20330
H        -15.78950        6.51020      -10.45490
H        -17.31770        7.22430      -10.95080
H        -17.31450        5.84880       -9.85500
H        -14.11560        8.87910       -9.16400
H        -12.67530        8.18750       -8.40220
H        -13.86080        9.06600       -7.42420
H        -10.31360        8.73310       -4.04690
H         -9.17680        8.11560       -5.23860
H         -8.63380        8.43390       -3.59360
H        -12.38810        5.26090        6.19080
H        -11.52430        6.03750        7.52000
H        -10.89580        4.54150        6.81770
H         -8.31323       -1.89401       -2.11287
H        -11.08530      -13.36270       -4.48530
H        -11.01530      -12.92200       -6.15580
H         -9.58280      -12.86760       -5.17590
H        -10.95160       -9.36790      -11.04730
H        -10.59300      -10.29360       -9.60960
H        -11.31480       -8.68950       -9.48830
H        -19.98660        8.47480       -2.26030
H        -21.52750        7.99370       -1.44310
H        -20.81370        9.64650       -1.19410
H        -23.06240        4.66330       -0.14750
H        -24.39490        3.55460        0.25770
H        -24.02990        4.93510        1.32140
H        -14.75910      -12.31680       -1.19910
H        -13.72780      -12.35930        0.24000
H        -14.81350      -10.99240       -0.02240
H        -12.75751       -3.91948       -1.34431
H        -16.54896       -2.54638        3.78851
H        -18.32351       -0.85192        3.96216
H        -19.41368       -0.85224        5.36604
H        -19.27508       -2.25099        4.14361
