567
	Energy:     901.5112017
C         -9.19353       -8.55770      -10.03881
O         -8.76758       -8.06814      -11.07436
N         -8.47182       -8.48253       -8.88675
C         -7.19629       -7.78112       -8.76286
C         -6.42743       -8.21180       -7.51354
O         -6.88583       -9.04777       -6.74815
C         -7.38853       -6.24138       -8.82411
C         -8.29118       -5.64683       -7.75944
C         -7.74846       -4.95546       -6.65971
C         -9.68980       -5.72276       -7.88873
C         -8.58648       -4.37153       -5.70334
C        -10.52491       -5.12134       -6.94221
C         -9.97849       -4.45093       -5.84739
O        -10.80163       -3.89082       -4.94389
N         -3.03179       -0.15635       -2.14710
C         -3.57180        0.33240       -0.85236
C         -2.93030       -0.41911        0.30703
O         -2.87662       -1.64067        0.30124
C         -5.12306        0.17040       -0.83960
C         -5.78747        1.04785       -1.93443
C         -5.71089        0.58457        0.53454
C         -7.20132        0.58500       -2.28135
N         -5.29429        2.47436        6.36669
C         -5.14470        2.38175        4.90425
C         -4.90803        3.74281        4.24185
O         -5.45004        4.75068        4.67518
C         -6.38655        1.71046        4.27796
C         -6.61918        0.21690        4.65132
C         -7.90541       -0.27681        3.96249
C         -5.42237       -0.68962        4.27472
N         -4.17110        3.79038        3.09474
C         -3.92676        4.98970        2.29629
C         -3.54747        4.58132        0.87483
O         -2.65332        3.76786        0.68848
C         -2.82758        5.86908        2.93136
C         -2.56954        7.16414        2.12720
C         -1.54583        8.05466        2.78065
O         -0.61188        7.54426        3.60722
O         -1.51603        9.24428        2.50758
N         -4.22575        5.11434       -0.17743
C         -3.98458        4.78515       -1.58057
C         -2.64450        5.31889       -2.04467
O         -2.30296        6.45438       -1.74804
C         -5.12134        5.40250       -2.42768
C         -5.07600        5.06690       -3.89868
C         -5.60101        3.92001       -4.48583
C         -4.57273        5.82582       -4.94575
N         -5.43005        3.95677       -5.82683
C         -4.80209        5.11417       -6.09938
C         -3.93603        7.06911       -4.97482
C         -4.41165        5.59324       -7.35257
C         -3.52674        7.57341       -6.22517
C         -3.76272        6.83936       -7.40734
N         -3.10906       -8.53334       -2.55665
C         -4.26370       -7.82353       -1.97940
C         -5.22869       -7.35454       -3.06458
O         -4.80977       -6.70674       -4.01721
C         -3.75627       -6.65867       -1.12051
N         -6.55472       -7.61969       -2.95002
C         -7.57310       -7.17082       -3.87486
C         -8.67053       -8.19441       -4.01432
O         -8.57756       -9.27973       -3.46819
N         -9.77234       -7.90109       -4.72739
C        -10.93908       -8.76756       -4.83803
C        -10.57509      -10.13101       -5.42884
O         -9.99371      -10.19709       -6.49578
C        -11.98884       -8.01857       -5.67432
C        -13.34687       -8.71832       -5.87530
C        -14.08480       -8.99799       -4.54317
C        -14.20332       -7.87732       -6.85173
N        -10.90622      -11.27059       -4.76791
C        -13.12461      -11.03262       -1.11139
O        -12.90678      -11.22697       -2.28922
N        -12.33627      -10.21772       -0.36495
C        -11.09955       -9.61156       -0.82233
C         -9.96893      -10.05661        0.08731
O        -10.15706      -10.17655        1.29085
C        -11.20869       -8.08487       -0.81326
N         -8.74057      -10.27446       -0.43913
C         -7.54052      -10.54392        0.32431
C         -6.90716       -9.24286        0.77250
O         -7.07260       -8.21460        0.13933
C         -6.52319      -11.30244       -0.57135
C         -6.85811      -12.75906       -0.78693
O         -7.49302      -13.37428        0.05705
N         -6.38041      -13.41639       -1.86963
N         -6.14682       -9.23321        1.89120
C         -5.33501       -8.09728        2.31686
C         -3.97437       -8.62013        2.76087
O         -3.75878       -9.82212        2.84572
C         -6.04798       -7.32530        3.45044
C         -7.15377       -6.40031        2.97953
C         -8.51871       -6.61725        3.13404
C         -7.04441       -5.15277        2.36423
N         -9.22422       -5.57114        2.64385
C         -8.32556       -4.68375        2.18319
C         -5.93812       -4.39240        1.96784
C         -8.58566       -3.44263        1.59325
C         -6.17479       -3.14220        1.35840
C         -7.49109       -2.67057        1.17277
C        -19.85101        8.04409       -0.19616
O        -18.72660        7.59776       -0.34648
N        -20.40712        8.10951        1.03968
C        -19.64898        7.92779        2.26972
C        -19.79690        6.51775        2.80699
O        -20.90023        5.99896        2.89623
C        -20.09870        8.98342        3.32603
C        -19.37315        8.81203        4.67489
C        -19.87301       10.41956        2.81784
N        -18.68445        5.88761        3.27133
C        -18.64257        4.62553        3.98330
C        -18.04525        4.84720        5.36414
O        -17.58922        5.93433        5.67728
C        -17.79418        3.63476        3.16826
O        -18.48533        3.28965        2.00017
N        -17.16275        2.84750        9.71209
C        -16.24065        1.76062        9.32362
C        -15.95671        0.78975       10.45837
O        -16.26672        1.05244       11.61110
N         -7.41846       -5.18313        8.44668
C         -8.05152       -4.17905        7.56199
C         -9.51576       -3.89314        7.93010
O        -10.12282       -4.70083        8.61992
C         -7.96273       -4.65901        6.11062
N        -10.15859       -2.74724        7.53006
C        -11.53107       -2.41703        7.90128
C        -12.57657       -3.38420        7.36898
O        -12.26300       -4.28871        6.60818
C        -11.75559       -1.02190        7.30330
C        -10.35907       -0.44340        7.26608
C         -9.51329       -1.64160        6.85777
N        -18.70737       -3.94676        6.96367
C        -17.93401       -2.68479        6.99897
C        -18.51278       -1.70340        7.99783
O        -18.69416       -0.54173        7.68096
N        -21.77332        0.56154        7.85703
C        -22.18781        1.70688        7.03140
C        -21.54318        1.66909        5.64947
O        -20.32655        1.66004        5.52237
C        -21.86295        3.04064        7.77561
C        -22.61528        3.13523        9.12940
C        -22.13598        4.29475        6.91425
C        -24.12805        3.37688        9.01847
N        -22.35919        1.75084        4.56726
C        -21.90613        1.96148        3.19817
C        -22.99820        2.62979        2.38599
O        -24.16716        2.57985        2.74754
C        -21.34898        0.68032        2.54786
C        -22.27647       -0.51147        2.66265
C        -22.04713       -1.46794        3.66151
C        -23.35478       -0.70032        1.78576
C        -22.85542       -2.59351        3.79072
C        -24.17131       -1.83400        1.90989
C        -23.92135       -2.78400        2.91348
O        -24.69799       -3.87712        3.04466
N        -22.65516        3.39068        1.31671
N        -14.48976        7.03362        5.32547
C        -13.94041        7.01790        3.96458
C        -14.90044        7.50802        2.89841
O        -16.05601        7.76870        3.19392
N        -14.45931        7.68868        1.62848
C        -15.24866        8.16016        0.48094
C        -14.35695        8.18394       -0.76174
O        -13.41998        7.39756       -0.81907
C        -15.93034        9.55191        0.80618
O        -16.73745       10.06057       -0.21831
C        -14.92730       10.64486        1.13960
N        -14.61621        8.95097       -1.84239
C        -13.73780        9.09967       -2.97977
C        -13.55248       10.58917       -3.26718
O        -14.21608       11.42301       -2.66329
C        -14.37121        8.36615       -4.17062
C        -14.41932        6.86266       -3.99040
C        -13.46688        5.98562       -4.49746
C        -15.37344        6.05679       -3.36998
N        -13.79934        4.70705       -4.21493
C        -14.95764        4.75458       -3.53480
C        -16.56569        6.34876       -2.69895
C        -15.69273        3.67160       -3.04341
C        -17.32282        5.27232       -2.18971
C        -16.88753        3.94256       -2.35916
N        -16.74108        7.71945       -8.95845
C        -16.01994        7.25419       -7.75361
C        -14.53324        7.13600       -8.02708
O        -13.96180        6.05611       -7.96871
C        -16.61546        5.96934       -7.11514
C        -18.09816        6.07814       -6.67006
C        -18.58142        4.74368       -6.06016
C        -18.34895        7.25719       -5.69601
N         -9.84721        6.69419       -3.82824
C        -10.35045        6.45615       -2.46475
C         -9.56532        7.04916       -1.28691
O         -8.34654        6.96924       -1.22839
C        -10.35050        4.93941       -2.35880
C         -9.20831        4.46492       -3.25311
C         -8.77554        5.71548       -4.02038
N        -10.28651        7.52208       -0.22647
C         -9.78136        7.85069        1.09785
C        -10.43218        6.91625        2.11129
O        -11.45213        6.31046        1.80914
C        -10.00373        9.35075        1.45468
C         -9.17768       10.23608        0.51573
C        -11.47780        9.80573        1.42828
N         -9.82537        6.66076        3.30035
C        -10.31360        5.64406        4.22712
C        -10.60678        6.24997        5.58134
O        -10.26623        7.39651        5.83486
C         -9.25792        4.52302        4.32449
C         -8.95968        3.93603        2.96188
C         -9.70347        2.84926        2.47679
C         -7.93939        4.48074        2.15677
C         -9.43047        2.32654        1.21004
C         -7.68756        3.96054        0.88436
C         -8.43820        2.88876        0.41074
H         -8.84361       -8.97693       -8.07341
H         -6.54171       -8.08752       -9.60895
H         -7.78734       -5.93803       -9.81467
H         -6.38706       -5.76774       -8.75938
H         -6.67753       -4.87225       -6.53190
H        -10.13884       -6.22443       -8.73386
H         -8.15410       -3.85604       -4.85374
H        -11.60054       -5.17581       -7.05536
H        -10.45828       -3.40217       -4.18936
H         -2.36706       -0.95877       -2.03601
H         -3.36100        1.41660       -0.70552
H         -5.35160       -0.90071       -1.03353
H         -5.23175        1.01209       -2.89169
H         -5.80377        2.10355       -1.58793
H         -6.81360        0.52271        0.56049
H         -5.34746       -0.07667        1.34119
H         -5.42893        1.63370        0.78111
H         -7.11646       -0.32049       -2.91494
H         -7.81240        0.35778       -1.38563
H         -7.73156        1.35588       -2.87608
H         -5.92560        3.26842        6.62627
H         -4.27124        1.74033        4.65934
H         -6.27540        1.75203        3.17100
H         -7.28735        2.30096        4.54654
H         -6.79007        0.09530        5.74373
H         -8.78997        0.20383        4.43278
H         -7.90962       -0.04562        2.87772
H         -8.02083       -1.37622        4.08194
H         -5.74724       -1.66127        3.84475
H         -4.73255       -0.21809        3.55007
H         -4.84342       -0.93585        5.19099
H         -3.81025        2.89619        2.74127
H         -4.86296        5.59044        2.24731
H         -1.88586        5.28545        3.00914
H         -3.15364        6.15986        3.95401
H         -3.52201        7.73123        2.04044
H         -2.21909        6.94009        1.09596
H         -4.96759        5.79920        0.03537
H         -4.03056        3.68357       -1.72102
H         -5.15356        6.50345       -2.29470
H         -6.08369        5.00680       -2.03519
H         -6.09357        3.11295       -3.96370
H         -5.73499        3.22871       -6.51069
H         -3.75347        7.63104       -4.06950
H         -4.59677        5.02806       -8.25780
H         -3.02558        8.53119       -6.28411
H         -3.44161        7.23915       -8.36198
H         -2.82092       -8.10422       -3.46787
H         -4.79826       -8.48576       -1.26096
H         -4.59548       -6.14802       -0.59887
H         -3.08392       -7.05843       -0.32935
H         -3.19734       -5.91414       -1.72214
H         -6.87975       -8.08459       -2.10074
H         -7.15070       -6.93270       -4.87193
H         -8.04004       -6.25285       -3.45434
H         -9.78974       -6.98158       -5.18633
H        -11.36285       -8.91194       -3.82326
H        -11.53949       -7.80132       -6.66547
H        -12.18735       -7.04375       -5.16263
H        -13.18113       -9.70272       -6.36449
H        -15.12425       -8.61112       -4.53569
H        -14.16475      -10.09913       -4.40610
H        -13.57401       -8.57703       -3.65517
H        -14.08205       -8.27762       -7.88110
H        -15.28657       -7.91107       -6.61831
H        -13.89398       -6.80860       -6.87296
H        -11.41040      -11.18634       -3.89420
H        -12.61240      -10.04775        0.61293
H        -10.86128       -9.90971       -1.86591
H        -10.24333       -7.63549       -1.13833
H        -11.99529       -7.75049       -1.52404
H        -11.45474       -7.70935        0.20125
H         -8.61868      -10.09147       -1.42874
H         -7.77990      -11.14009        1.23255
H         -5.50964      -11.28608       -0.12169
H         -6.42763      -10.78435       -1.55540
H         -6.56026      -14.42466       -1.99054
H         -5.82835      -12.92348       -2.58674
H         -6.10022      -10.10570        2.44105
H         -5.13796       -7.40941        1.46587
H         -5.34723       -6.68453        4.01945
H         -6.45159       -8.08074        4.15966
H         -8.96857       -7.49519        3.57600
H        -10.26417       -5.47626        2.63052
H         -4.92706       -4.74627        2.11366
H         -9.59514       -3.08012        1.45198
H         -5.34280       -2.53626        1.02656
H         -7.66179       -1.71060        0.70126
H        -21.38606        8.42395        1.11654
H        -18.56781        8.12298        2.08117
H        -21.18579        8.85432        3.51533
H        -19.71063        9.59293        5.38993
H        -19.61927        7.83029        5.13033
H        -18.27110        8.89132        4.55832
H        -20.22282       11.14936        3.58009
H        -18.79695       10.61199        2.61561
H        -20.45121       10.60836        1.88990
H        -17.79006        6.36482        3.17525
H        -19.66250        4.22482        4.13511
H        -17.59214        2.71689        3.75911
H        -16.81988        4.10846        2.89650
H        -17.95445        2.57231        1.56614
H        -16.83108        3.33224       10.57921
H         -8.09790       -5.89358        8.80394
H         -7.45415       -3.24757        7.62101
H         -8.38215       -3.90417        5.41401
H         -6.90018       -4.82588        5.82994
H         -8.51670       -5.61252        5.97841
H        -11.56991       -2.39086        9.01132
H        -12.49470       -0.40584        7.85417
H        -12.07983       -1.11632        6.24634
H        -10.08625       -0.17067        8.31020
H        -10.23019        0.44757        6.61463
H         -9.54161       -1.83606        5.76998
H         -8.48059       -1.43337        7.20339
H        -18.16167       -4.70879        6.50250
H        -16.95802       -2.94916        7.45677
H        -20.74250        0.45876        7.80134
H        -23.28703        1.67528        6.90530
H        -20.78331        3.03291        8.01704
H        -22.19326        3.97326        9.72578
H        -22.43339        2.20215        9.70188
H        -21.92439        5.21476        7.49991
H        -21.48241        4.31785        6.01729
H        -23.19066        4.32500        6.56757
H        -24.58843        3.28594       10.02384
H        -24.33046        4.40509        8.64840
H        -24.62535        2.65006        8.34783
H        -23.36522        1.81676        4.76422
H        -21.09451        2.71939        3.22716
H        -20.39735        0.43759        3.06640
H        -21.07164        0.85081        1.48300
H        -21.25011       -1.33544        4.35571
H        -23.55447        0.01640        1.00092
H        -22.64927       -3.31308        4.57520
H        -24.99555       -1.97776        1.22517
H        -25.45037       -4.04270        2.46011
H        -21.66658        3.45067        1.03115
H        -15.40340        6.54196        5.34338
H        -13.64262        5.97696        3.71415
H        -13.02379        7.64106        3.94129
H        -13.46005        7.49079        1.48788
H        -16.04160        7.40851        0.27517
H        -16.59137        9.43593        1.68201
H        -17.37525        9.36615       -0.48054
H        -15.49367       11.57865        1.34778
H        -14.33554       10.38176        2.03679
H        -14.25609       10.83498        0.27589
H        -15.48583        9.47955       -1.90520
H        -12.72716        8.67717       -2.77013
H        -13.76260        8.56880       -5.07251
H        -15.39274        8.75642       -4.36362
H        -12.57908        6.27252       -5.04479
H        -13.25891        3.85440       -4.48239
H        -16.90679        7.36601       -2.57192
H        -15.36069        2.65020       -3.18173
H        -18.25045        5.45598       -1.66558
H        -17.47999        3.12580       -1.96241
H        -17.72168        7.98275       -8.71124
H        -16.10009        8.04601       -6.98223
H        -16.01027        5.71944       -6.21733
H        -16.51029        5.11651       -7.82069
H        -18.71558        6.23001       -7.58119
H        -19.60437        4.52185       -6.43979
H        -17.93751        3.88955       -6.35575
H        -18.63145        4.76885       -4.95162
H        -19.11980        7.02479       -4.93059
H        -17.42456        7.52873       -5.14321
H        -18.69131        8.15367       -6.25323
H        -11.40010        6.80279       -2.38335
H        -11.28576        4.61737       -2.86652
H        -10.37926        4.51066       -1.33256
H         -9.61510        3.68451       -3.93696
H         -8.34862        4.04627       -2.69114
H         -7.84352        6.10323       -3.55608
H         -8.57042        5.50442       -5.09283
H        -11.29485        7.54645       -0.31729
H         -8.69249        7.63904        1.13326
H         -9.62554        9.51730        2.48647
H         -9.26143       11.30072        0.82084
H         -8.10755        9.94567        0.57388
H         -9.52208       10.13656       -0.53616
H        -11.54858       10.88205        1.70278
H        -11.93011        9.68757        0.42047
H        -12.07882        9.24427        2.17003
H         -8.93841        7.13939        3.51759
H        -11.26644        5.19963        3.86125
H         -9.58158        3.71562        5.01579
H         -8.32153        4.94991        4.74534
H        -10.49023        2.40781        3.07613
H         -7.34800        5.31551        2.50696
H         -9.98417        1.48634        0.84072
H         -6.91403        4.38513        0.26196
H         -8.24944        2.49171       -0.57399
C        -14.92173        2.35211        8.75147
C        -14.78791        2.14546        7.26074
C        -14.68419        3.23280        6.37974
C        -14.73562        0.84015        6.74210
C        -14.53233        3.01130        5.00581
C        -14.57721        0.62062        5.37321
C        -14.47612        1.70733        4.50279
O        -14.32456        1.50027        3.18399
H        -14.71958        4.24791        6.75316
H        -14.81018       -0.00867        7.40177
H        -14.45485        3.85091        4.33122
H        -14.53089       -0.39319        4.99383
C         -9.33129       -2.25289       -1.95251
C        -10.47702       -1.45821       -1.86762
C        -11.72244       -2.07272       -1.67090
C        -11.80664       -3.46159       -1.53382
C        -10.65556       -4.24250       -1.61535
C         -9.41991       -3.63923       -1.84476
O        -12.84146       -1.34709       -1.54079
P        -13.05986       -0.60168       -0.02596
O        -14.57261       -0.32612        0.18615
O        -12.56618       -1.76769        1.16954
O        -12.07827        0.83318        0.09816
C        -11.85125       -1.11661        2.18776
C        -11.84832       -2.05092        3.37667
C        -12.80772        1.99304       -0.19054
C        -12.74858        2.29550       -1.67701
H        -10.39543       -0.37915       -1.94937
H        -10.72156       -5.31155       -1.50422
H        -10.80007       -0.91079        1.87537
H        -12.33855       -0.16776        2.50792
H        -11.26105       -1.61574        4.20351
H        -12.89726       -2.21868        3.70287
H        -11.40334       -3.02484        3.08467
H        -13.85040        1.97473        0.19217
H        -12.30532        2.81817        0.35378
H        -13.16944        3.30493       -1.84915
H        -11.69440        2.27789       -2.02583
H        -13.33061        1.54454       -2.25003
C        -17.56671       -2.04503        5.60543
C        -16.74794       -3.01214        4.74732
C        -18.70566       -1.47035        4.75098
H        -16.92542       -1.16928        5.84174
H        -15.82409       -3.30166        5.28489
H        -17.33666       -3.92435        4.51110
H        -16.74339        1.15529        8.53806
H        -14.03288        1.86788        9.21073
H        -14.84358        3.42878        9.02391
C         -5.04603       -7.68043       -7.24766
C         -2.35611        0.87841       -2.92695
C         -2.42110        0.33339        1.49948
C         -4.00677        2.61564        7.04868
C         -1.78862        4.51499       -2.97824
C         -3.35377       -9.96189       -2.73814
C         -2.85051       -7.67681        3.04670
C        -18.09218        3.77776        6.40507
C        -18.54154        2.37718        9.89911
C        -15.35824       -0.55081       10.13936
C         -6.71026       -4.56448        9.57282
C        -14.01146       -3.23593        7.78510
C        -20.06299       -3.89599        6.41454
C        -18.77054       -2.11796        9.41957
C        -22.42031       -0.69971        7.49332
C        -14.62869        8.38975        5.86420
C        -12.54513       11.07962       -4.26035
C        -16.77056        6.76770      -10.07744
C        -13.74106        8.37811       -8.30772
C         -9.46513        8.06990       -4.15810
C        -11.37521        5.46915        6.60657
C        -10.60586      -12.61214       -5.22205
C        -10.52709       -9.26006      -10.04572
C        -20.61895        8.53391       -1.38583
C        -23.63062        4.18399        0.60743
C        -14.26611      -11.73229       -0.47425
H         -4.40122       -7.85304       -8.13458
H         -4.58624       -8.19323       -6.37547
H         -5.08276       -6.59543       -7.02917
H         -3.05214        1.71087       -3.15688
H         -2.01459        0.44551       -3.89231
H         -1.46993        1.25623       -2.37685
H         -1.63991        1.06065        1.20337
H         -2.01904       -0.35792        2.26990
H         -3.26870        0.88178        1.95034
H         -3.38150        1.71381        6.87006
H         -4.17908        2.69397        8.14272
H         -3.46515        3.52261        6.70444
H         -2.38390        4.24899       -3.87751
H         -1.43927        3.59061       -2.48500
H         -0.90836        5.10246       -3.31711
H         -3.49200      -10.44677       -1.74771
H         -2.46356      -10.42156       -3.21773
H         -4.24359      -10.13814       -3.37857
H         -2.64762       -7.08047        2.13414
H         -1.93167       -8.24353        3.31078
H         -3.10527       -7.00215        3.88561
H        -19.15262        3.63194        6.66046
H        -17.55654        4.09766        7.32375
H        -17.65709        2.82524        6.04611
H        -18.91730        1.90371        8.96818
H        -19.20067        3.24040       10.12970
H        -18.61558        1.64843       10.73384
H        -15.99009       -1.04624        9.37351
H        -15.32912       -1.20141       11.03777
H        -14.33272       -0.44542        9.73389
H         -5.86120       -3.95132        9.19639
H         -6.28404       -5.35396       10.22723
H         -7.39232       -3.92535       10.17366
H        -14.07257       -3.29954        8.89092
H        -14.64473       -4.03968        7.35190
H        -14.41212       -2.25855        7.45509
H        -20.67198       -3.11422        6.90920
H        -20.55345       -4.87892        6.57187
H        -20.05034       -3.76729        5.32533
H        -19.51538       -2.93874        9.45777
H        -19.15266       -1.26257       10.01932
H        -17.82382       -2.47014        9.87804
H        -23.51432       -0.62991        7.66553
H        -22.02765       -1.51053        8.14430
H        -22.21993       -0.97077        6.43928
H        -13.63165        8.87414        5.93032
H        -15.05321        8.33835        6.88895
H        -15.30500        9.01256        5.24122
H        -11.53205       10.79471       -3.91279
H        -12.58325       12.18941       -4.33690
H        -12.73878       10.65055       -5.26201
H        -15.74385        6.51219      -10.41346
H        -17.29820        7.23599      -10.93642
H        -17.32809        5.84460       -9.81441
H        -14.12453        8.88248       -9.21717
H        -12.66318        8.14536       -8.44114
H        -13.84194        9.06897       -7.44390
H        -10.33482        8.74137       -4.01602
H         -9.17179        8.12219       -5.23002
H         -8.61319        8.42131       -3.53917
H        -12.37999        5.23506        6.19642
H        -11.50861        6.06257        7.53627
H        -10.85509        4.52302        6.85447
H         -8.36868       -1.81529       -2.09968
H        -11.04917      -13.34738       -4.51179
H        -11.04416      -12.80004       -6.22427
H         -9.50898      -12.77410       -5.24153
H        -10.94809       -9.30406      -11.07288
H        -10.43679      -10.29761       -9.65783
H        -11.23841       -8.70163       -9.40061
H        -20.01769        8.44344       -2.31616
H        -21.56061        7.96098       -1.48826
H        -20.85975        9.61096       -1.23695
H        -23.13212        4.73508       -0.21520
H        -24.42566        3.53097        0.19258
H        -24.08452        4.92493        1.30375
H        -14.80993      -12.35440       -1.21727
H        -13.84505      -12.39378        0.31152
H        -14.94813      -10.98485       -0.02640
H        -12.76438       -3.93110       -1.34875
H        -16.46205       -2.53045        3.78860
H        -18.28215       -0.83276        3.94629
H        -19.37684       -0.83157        5.35461
H        -19.26468       -2.24768        4.20349
H         -8.53057       -4.24216       -1.94481
