570
	Energy:     905.2505830
C         -9.19387       -8.55526      -10.03888
O         -8.76785       -8.06508      -11.07414
N         -8.47294       -8.48028       -8.88653
C         -7.19684       -7.78043       -8.76343
C         -6.42792       -8.21184       -7.51476
O         -6.88673       -9.04816       -6.75002
C         -7.38803       -6.24081       -8.82486
C         -8.29105       -5.64607       -7.76015
C         -7.74809       -4.95432       -6.66096
C         -9.68983       -5.72261       -7.88824
C         -8.58529       -4.37052       -5.70380
C        -10.52473       -5.12060       -6.94070
C         -9.97720       -4.44958       -5.84497
O        -10.79661       -3.88885       -4.93640
N         -3.03224       -0.15508       -2.14653
C         -3.57294        0.33327       -0.85208
C         -2.93249       -0.41869        0.30746
O         -2.88402       -1.64043        0.30325
C         -5.12347        0.16967       -0.84081
C         -5.78636        1.04818       -1.93548
C         -5.71143        0.58259        0.53326
C         -7.20020        0.58771       -2.28297
N         -5.29430        2.47337        6.36683
C         -5.14424        2.38082        4.90436
C         -4.90609        3.74155        4.24137
O         -5.44532        4.75018        4.67637
C         -6.38655        1.71079        4.27868
C         -6.61962        0.21724        4.65156
C         -7.90486       -0.27545        3.96105
C         -5.42257       -0.68856        4.27459
N         -4.17127        3.78872        3.09249
C         -3.92587        4.98903        2.29553
C         -3.54523        4.58361        0.87340
O         -2.64517        3.77699        0.68594
C         -2.82688        5.86747        2.93199
C         -2.57058        7.16332        2.12880
C         -1.54596        8.05364        2.78066
O         -0.61633        7.54466        3.61296
O         -1.51192        9.24178        2.50183
N         -4.22778        5.11297       -0.17816
C         -3.98668        4.78561       -1.58185
C         -2.64688        5.31993       -2.04643
O         -2.30789        6.45711       -1.75341
C         -5.12229        5.40469       -2.42846
C         -5.07635        5.06722       -3.89859
C         -5.60032        3.91961       -4.48547
C         -4.57284        5.82577       -4.94519
N         -5.42907        3.95634       -5.82637
C         -4.80170        5.11392       -6.09857
C         -3.93628        7.06901       -4.97377
C         -4.41164        5.59283       -7.35144
C         -3.52715        7.57333       -6.22404
C         -3.76324        6.83914       -7.40624
N         -3.11167       -8.53222       -2.55340
C         -4.26714       -7.81991       -1.97680
C         -5.23014       -7.35329       -3.06571
O         -4.80249       -6.71277       -4.01970
C         -3.75724       -6.65548       -1.12183
N         -6.55735       -7.62562       -2.97170
C         -7.54628       -7.25143       -3.96724
C         -8.66004       -8.24320       -4.05526
O         -8.58334       -9.31624       -3.48164
N         -9.76996       -7.92594       -4.74437
C        -10.94509       -8.77414       -4.84174
C        -10.58396      -10.13505       -5.43299
O        -10.00366      -10.20042       -6.50109
C        -11.99114       -8.02117       -5.67770
C        -13.34961       -8.71945       -5.87625
C        -14.08517       -8.99607       -4.54242
C        -14.20496       -7.87762       -6.85195
N        -10.90755      -11.27253       -4.76787
C        -13.12575      -11.03355       -1.10725
O        -12.90681      -11.22802       -2.28503
N        -12.33677      -10.21908       -0.36051
C        -11.10025       -9.61233       -0.81924
C         -9.96790      -10.05434        0.08952
O        -10.15331      -10.16704        1.29417
C        -11.20957       -8.08587       -0.81137
N         -8.74074      -10.27657       -0.43821
C         -7.54034      -10.54348        0.32580
C         -6.90846       -9.24137        0.77377
O         -7.07282       -8.21384        0.13808
C         -6.52175      -11.30254       -0.56807
C         -6.85924      -12.75851       -0.78683
O         -7.49828      -13.37345        0.05425
N         -6.38072      -13.41550       -1.86947
N         -6.14830       -9.23118        1.89303
C         -5.33525       -8.09596        2.31757
C         -3.97352       -8.61853        2.75968
O         -3.75692       -9.82054        2.84157
C         -6.04738       -7.32463        3.45137
C         -7.15418       -6.40119        2.98069
C         -8.51923       -6.61800        3.13555
C         -7.04460       -5.15263        2.36846
N         -9.22448       -5.57054        2.64809
C         -8.32559       -4.68087        2.19363
C         -5.93807       -4.39333        1.97074
C         -8.58563       -3.43573        1.61175
C         -6.17415       -3.14097        1.36574
C         -7.49012       -2.66487        1.18841
C        -19.85309        8.04111       -0.19525
O        -18.72867        7.59435       -0.34455
N        -20.40947        8.10887        1.04052
C        -19.65125        7.92758        2.27084
C        -19.79856        6.51813        2.80981
O        -20.90273        6.00261        2.90772
C        -20.10051        8.98348        3.32667
C        -19.37331        8.81204        4.67450
C        -19.87343       10.41890        2.81744
N        -18.68476        5.88592        3.26870
C        -18.64457        4.62454        3.98249
C        -18.04881        4.84735        5.36392
O        -17.59553        5.93579        5.67709
C        -17.79625        3.63269        3.16931
O        -18.48345        3.29232        1.99749
N        -17.16215        2.84758        9.71108
C        -16.24117        1.75991        9.32276
C        -15.95906        0.78869       10.45783
O        -16.27342        1.05008       11.60968
N         -7.41802       -5.18320        8.44518
C         -8.05127       -4.17854        7.56152
C         -9.51490       -3.89226        7.93060
O        -10.12136       -4.69974        8.62118
C         -7.96329       -4.65887        6.11067
N        -10.15804       -2.74648        7.53049
C        -11.53010       -2.41615        7.90292
C        -12.57486       -3.38479        7.37255
O        -12.25997       -4.29094        6.61431
C        -11.75574       -1.02220        7.30262
C        -10.35960       -0.44299        7.26714
C         -9.51400       -1.64078        6.85693
N        -18.70624       -3.94710        6.96179
C        -17.93195       -2.68562        6.99852
C        -18.51076       -1.70385        7.99736
O        -18.69134       -0.54182        7.68082
N        -21.77524        0.56262        7.85828
C        -22.18985        1.70759        7.03225
C        -21.54661        1.66921        5.64963
O        -20.33010        1.66006        5.52221
C        -21.86324        3.04044        7.77648
C        -22.61519        3.13484        9.13053
C        -22.13576        4.29420        6.91484
C        -24.12794        3.37589        9.01935
N        -22.36277        1.75074        4.56712
C        -21.90806        1.96165        3.19823
C        -22.99863        2.63026        2.38392
O        -24.16774        2.58183        2.74498
C        -21.34907        0.68043        2.54973
C        -22.27720       -0.51104        2.66271
C        -22.04826       -1.46791        3.66123
C        -23.35566       -0.69907        1.78552
C        -22.85711       -2.59302        3.78990
C        -24.17259       -1.83281        1.90899
C        -23.92286       -2.78322        2.91245
O        -24.69913       -3.87670        3.04372
N        -22.65475        3.39012        1.31385
N        -14.48747        7.03373        5.32484
C        -13.93807        7.02082        3.96395
C        -14.89859        7.51246        2.89922
O        -16.05412        7.77486        3.19687
N        -14.46011        7.69091        1.62833
C        -15.25133        8.16245        0.48217
C        -14.36289        8.18456       -0.76312
O        -13.42436        7.39850       -0.82012
C        -15.93089        9.55510        0.80836
O        -16.73925       10.06370       -0.21529
C        -14.92500       10.64569        1.14149
N        -14.62229        8.95036       -1.84455
C        -13.74173        9.09881       -2.98079
C        -13.55223       10.58797       -3.26726
O        -14.21268       11.42275       -2.66121
C        -14.37165        8.36593       -4.17346
C        -14.41927        6.86289       -3.99229
C        -13.46703        5.98540       -4.49926
C        -15.37280        6.05789       -3.37044
N        -13.79937        4.70726       -4.21532
C        -14.95722        4.75570       -3.53492
C        -16.56472        6.35038       -2.69906
C        -15.69202        3.67313       -3.04357
C        -17.32206        5.27398       -2.19009
C        -16.88688        3.94413       -2.35976
N        -16.74151        7.72048       -8.95740
C        -16.02062        7.25563       -7.75226
C        -14.53389        7.13701       -8.02569
O        -13.96272        6.05707       -7.96565
C        -16.61558        5.97016       -7.11478
C        -18.09861        6.07722       -6.67107
C        -18.57959        4.74319       -6.05917
C        -18.35056        7.25631       -5.69780
N         -9.84748        6.69421       -3.82755
C        -10.35088        6.45528       -2.46419
C         -9.56529        7.04637       -1.28615
O         -8.34716        6.95844       -1.22467
C        -10.35080        4.93873       -2.35989
C         -9.20659        4.46529       -3.25215
C         -8.77491        5.71628       -4.01935
N        -10.28557        7.52543       -0.22791
C         -9.77814        7.85116        1.09639
C        -10.42737        6.91437        2.10874
O        -11.44354        6.30373        1.80309
C        -10.00094        9.35057        1.45503
C         -9.17679       10.23664        0.51534
C        -11.47560        9.80379        1.42876
N         -9.82368        6.66230        3.30055
C        -10.31242        5.64506        4.22689
C        -10.60754        6.25056        5.58101
O        -10.26973        7.39797        5.83416
C         -9.25750        4.52338        4.32514
C         -8.95946        3.93634        2.96265
C         -9.70279        2.84910        2.47761
C         -7.93971        4.48173        2.15754
C         -9.42936        2.32629        1.21096
C         -7.68744        3.96146        0.88536
C         -8.43717        2.88907        0.41189
H         -8.84584       -8.97330       -8.07259
H         -6.54300       -8.08809       -9.60956
H         -7.78588       -5.93706       -9.81574
H         -6.38586       -5.76875       -8.75964
H         -6.67715       -4.87097       -6.53406
H        -10.13878       -6.22552       -8.73311
H         -8.15240       -3.85507       -4.85455
H        -11.60022       -5.17659       -7.05472
H        -10.45072       -3.41059       -4.17341
H         -2.36927       -0.95893       -2.03565
H         -3.36327        1.41780       -0.70501
H         -5.35097       -0.90167       -1.03592
H         -5.23061        1.01150       -2.89258
H         -5.80144        2.10372       -1.58848
H         -6.81390        0.51896        0.55995
H         -5.34616       -0.07816        1.33932
H         -5.43012        1.63191        0.77939
H         -7.11776       -0.32337       -2.91003
H         -7.81310        0.37090       -1.38615
H         -7.72669        1.35659       -2.88324
H         -5.92770        3.26563        6.62697
H         -4.27146        1.73840        4.65972
H         -6.27554        1.75274        3.17180
H         -7.28689        2.30195        4.54777
H         -6.79202        0.09419        5.74361
H         -8.78939        0.21060        4.42595
H         -7.90409       -0.05022        2.87508
H         -8.02353       -1.37377        4.08639
H         -5.74761       -1.66442        3.85436
H         -4.73946       -0.22006        3.54161
H         -4.83631       -0.92518        5.18862
H         -3.81286        2.89444        2.73684
H         -4.86207        5.58969        2.24705
H         -1.88485        5.28418        3.00927
H         -3.15296        6.15712        3.95498
H         -3.52398        7.72922        2.04563
H         -2.22234        6.94122        1.09632
H         -4.97381        5.79296        0.03571
H         -4.03327        3.68431       -1.72355
H         -5.15001        6.50604       -2.29666
H         -6.08617        5.01265       -2.03658
H         -6.09275        3.11236       -3.96364
H         -5.73335        3.22856       -6.51082
H         -3.75381        7.63067       -4.06817
H         -4.59715        5.02692       -8.25605
H         -3.02625        8.53120       -6.28277
H         -3.44271        7.23870       -8.36101
H         -2.81741       -8.10250       -3.46278
H         -4.80121       -8.48230       -1.25851
H         -4.59847       -6.14523       -0.60391
H         -3.08348       -7.05539       -0.33152
H         -3.19719       -5.91385       -1.72611
H         -6.89479       -8.08355       -2.11996
H         -7.10305       -7.00346       -4.94541
H         -8.06551       -6.35086       -3.68150
H         -9.78256       -7.00353       -5.20299
H        -11.36278       -8.91355       -3.82370
H        -11.54203       -7.80646       -6.67005
H        -12.18624       -7.04465       -5.16792
H        -13.18762       -9.70513       -6.36455
H        -15.12573       -8.61257       -4.53632
H        -14.16186      -10.09702       -4.40145
H        -13.57450       -8.57105       -3.65620
H        -14.07270       -8.26915       -7.88340
H        -15.28927       -7.92245       -6.62590
H        -13.90338       -6.80658       -6.86227
H        -11.40693      -11.18761       -3.89099
H        -12.61273      -10.04887        0.61746
H        -10.86284       -9.91019       -1.86308
H        -10.24425       -7.63742       -1.13834
H        -11.99683       -7.75227       -1.52163
H        -11.45405       -7.70934        0.20315
H         -8.61998      -10.10003       -1.42945
H         -7.77938      -11.14067        1.23341
H         -5.50913      -11.28842       -0.11590
H         -6.42387      -10.78307       -1.55096
H         -6.56326      -14.42308       -1.99248
H         -5.82567      -12.92323       -2.58470
H         -6.10303      -10.10260        2.44493
H         -5.13979       -7.40788        1.46662
H         -5.34686       -6.68220        4.01901
H         -6.44951       -8.07910        4.16251
H         -8.96958       -7.49565        3.57732
H        -10.26423       -5.47439        2.63434
H         -4.92728       -4.75030        2.11139
H         -9.59526       -3.07619        1.46641
H         -5.34222       -2.53745        1.02974
H         -7.66098       -1.70716        0.71302
H        -21.38671        8.42891        1.11673
H        -18.57028        8.12323        2.08240
H        -21.18764        8.85499        3.51687
H        -19.71085        9.59187        5.39054
H        -19.61717        7.82944        5.12927
H        -18.27157        8.89286        4.55594
H        -20.22290       11.14966        3.57880
H        -18.79693       10.60966        2.61584
H        -20.45036       10.60740        1.88866
H        -17.78877        6.36055        3.16739
H        -19.66493        4.22431        4.13351
H        -17.59943        2.71308        3.75928
H        -16.81982        4.10480        2.90285
H        -17.95415        2.57272        1.56536
H        -16.82953        3.33226       10.57793
H         -8.09589       -5.89731        8.79834
H         -7.45390       -3.24706        7.62065
H         -8.38254       -3.90400        5.41408
H         -6.90068       -4.82644        5.83063
H         -8.51765       -5.61235        5.97962
H        -11.56748       -2.38754        9.01304
H        -12.49671       -0.40619        7.85093
H        -12.07827       -1.11856        6.24527
H        -10.08736       -0.17267        8.31207
H        -10.23056        0.44955        6.61788
H         -9.54470       -1.83463        5.76897
H         -8.48074       -1.43251        7.20046
H        -18.16169       -4.70923        6.49939
H        -16.95648       -2.95154        7.45662
H        -20.74381        0.46090        7.80632
H        -23.28917        1.67700        6.90673
H        -20.78344        3.03199        8.01753
H        -22.19332        3.97294        9.72680
H        -22.43335        2.20180        9.70327
H        -21.92217        5.21444        7.49934
H        -21.48352        4.31539        6.01686
H        -23.19079        4.32473        6.56943
H        -24.58755        3.29026       10.02546
H        -24.33042        4.40205        8.64390
H        -24.62579        2.64538        8.35310
H        -23.36912        1.81597        4.76334
H        -21.09679        2.71966        3.22874
H        -20.39960        0.43811        3.07247
H        -21.06733        0.84994        1.48591
H        -21.25095       -1.33595        4.35572
H        -23.55502        0.01819        1.00098
H        -22.65144       -3.31272        4.57426
H        -24.99679       -1.97617        1.22401
H        -25.45133       -4.04361        2.45936
H        -21.66609        3.44988        1.02820
H        -15.40046        6.53975        5.34308
H        -13.64071        5.98043        3.71086
H        -13.02054        7.64332        3.94185
H        -13.46089        7.48989        1.48566
H        -16.04688        7.41262        0.27966
H        -16.59096        9.44070        1.68519
H        -17.37399        9.36680       -0.48032
H        -15.48827       11.58071        1.35229
H        -14.33274       10.37979        2.03772
H        -14.25404       10.83447        0.27740
H        -15.49217        9.47998       -1.90790
H        -12.73232        8.67418       -2.76961
H        -13.75897        8.56774       -5.07287
H        -15.39246        8.75612       -4.37066
H        -12.57949        6.27140       -5.04741
H        -13.25976        3.85389       -4.48206
H        -16.90571        7.36779       -2.57218
H        -15.35936        2.65209       -3.18252
H        -18.24987        5.45757       -1.66642
H        -17.47932        3.12714       -1.96383
H        -17.72243        7.98319       -8.71072
H        -16.10147        8.04732       -6.98064
H        -16.01065        5.72051       -6.21679
H        -16.50910        5.11766       -7.82055
H        -18.71612        6.22669       -7.58250
H        -19.60775        4.52667       -6.42759
H        -17.94268        3.88744       -6.36527
H        -18.61646        4.76635       -4.95006
H        -19.13130        7.02786       -4.94124
H        -17.42935        7.51922       -5.13548
H        -18.67928        8.15670       -6.25687
H        -11.40057        6.80166       -2.38196
H        -11.28445        4.61872       -2.87157
H        -10.38385        4.50802       -1.33455
H         -9.61216        3.68390       -3.93547
H         -8.34616        4.04826       -2.68994
H         -7.84375        6.10512       -3.55425
H         -8.56831        5.50532       -5.09151
H        -11.29429        7.55657       -0.32012
H         -8.68907        7.63930        1.13014
H         -9.62242        9.51712        2.48673
H         -9.26189       11.30129        0.81990
H         -8.10635        9.94734        0.57266
H         -9.52220       10.13591       -0.53614
H        -11.54793       10.87986        1.70346
H        -11.92762        9.68590        0.42074
H        -12.07607        9.24080        2.16975
H         -8.93875        7.14372        3.52066
H        -11.26449        5.20034        3.85973
H         -9.58262        3.71586        5.01575
H         -8.32080        4.94862        4.74695
H        -10.48954        2.40741        3.07683
H         -7.34902        5.31698        2.50777
H         -9.98263        1.48568        0.84153
H         -6.91423        4.38639        0.26296
H         -8.24768        2.49227       -0.57265
C        -14.92176        2.35115        8.75133
C        -14.78812        2.14567        7.26039
C        -14.68424        3.23332        6.37965
C        -14.73625        0.84058        6.74135
C        -14.53267        3.01213        5.00554
C        -14.57803        0.62134        5.37244
C        -14.47686        1.70820        4.50222
O        -14.32563        1.50130        3.18334
H        -14.71937        4.24836        6.75331
H        -14.81102       -0.00834        7.40093
H        -14.45510        3.85192        4.33107
H        -14.53196       -0.39245        4.99297
C         -9.31107       -2.23450       -1.87090
C        -10.47322       -1.46285       -1.88703
C        -11.71440       -2.08329       -1.69975
C        -11.78604       -3.47120       -1.54745
C        -10.61555       -4.23537       -1.52086
C         -9.36512       -3.60986       -1.65070
O        -12.83782       -1.35841       -1.57082
P        -13.05524       -0.60925       -0.04453
O        -14.56617       -0.32597        0.17537
O        -12.57199       -1.76994        1.16514
O        -12.07789        0.82997        0.09588
C        -11.85497       -1.11901        2.18440
C        -11.84831       -2.05125        3.37670
C        -12.80717        1.99205       -0.19123
C        -12.74868        2.29541       -1.67743
H        -10.40166       -0.38759       -2.00124
H        -10.68884       -5.30061       -1.36832
C         -8.08475       -4.37770       -1.50112
H        -10.80393       -0.91485        1.87105
H        -12.34093       -0.17000        2.50605
H        -11.26042       -1.61265        4.20192
H        -12.89582       -2.22047        3.70666
H        -11.40128       -3.02518        3.08808
H        -13.84974        1.97480        0.19206
H        -12.30569        2.81901        0.35253
H        -13.17212        3.30365       -1.85038
H        -11.69432        2.28072       -2.02563
H        -13.32851        1.54268       -2.25023
C        -17.56335       -2.04519        5.60581
C        -16.74526       -3.01225        4.74692
C        -18.70262       -1.46967        4.75215
H        -16.92066       -1.17061        5.84302
H        -15.82255       -3.30475        5.28490
H        -17.33569       -3.92268        4.50834
H        -16.74383        1.15503        8.53680
H        -14.03330        1.86598        9.21021
H        -14.84294        3.42754        9.02476
C         -5.04645       -7.68064       -7.24802
C         -2.35561        0.87944       -2.92578
C         -2.41873        0.33318        1.49844
C         -4.00691        2.61641        7.04855
C         -1.78793        4.51446       -2.97600
C         -3.35607       -9.96094       -2.73788
C         -2.84987       -7.67493        3.04748
C        -18.09182        3.77677        6.40458
C        -18.54079        2.37767        9.89900
C        -15.35686       -0.55055       10.14061
C         -6.71185       -4.56524        9.57288
C        -14.01043       -3.23606        7.78563
C        -20.06301       -3.89593        6.41539
C        -18.77067       -2.11866        9.41857
C        -22.42099       -0.69848        7.49297
C        -14.62804        8.38950        5.86433
C        -12.54500       11.07779       -4.26160
C        -16.76994        6.76825      -10.07598
C        -13.74120        8.37803       -8.30925
C         -9.46531        8.07013       -4.15623
C        -11.37413        5.46857        6.60692
C        -10.60467      -12.61184       -5.22367
C        -10.52606       -9.25896      -10.04611
C        -20.62008        8.53051       -1.38610
C        -23.63053        4.18337        0.60445
C        -14.26981      -11.73217       -0.47174
H         -4.40047       -7.85582       -8.13348
H         -4.58848       -8.19149       -6.37376
H         -5.08219       -6.59505       -7.03193
H         -3.05094        1.71266       -3.15536
H         -2.01485        0.44663       -3.89142
H         -1.46900        1.25605       -2.37558
H         -1.63648        1.05875        1.20075
H         -2.01642       -0.35894        2.26801
H         -3.26416        0.88321        1.95129
H         -3.38075        1.71530        6.86953
H         -4.17873        2.69453        8.14269
H         -3.46665        3.52393        6.70374
H         -2.38022        4.24794       -3.87717
H         -1.44014        3.59037       -2.48107
H         -0.90646        5.10148       -3.31245
H         -3.49535      -10.44736       -1.74854
H         -2.46564      -10.42160       -3.21709
H         -4.24491      -10.13645       -3.37975
H         -2.64596       -7.07756        2.13579
H         -1.93102       -8.24145        3.31215
H         -3.10494       -7.00092        3.88691
H        -19.15138        3.62380        6.65948
H        -17.55880        4.09902        7.32394
H        -17.65091        2.82666        6.04617
H        -18.91665        1.90388        8.96833
H        -19.19947        3.24105       10.12987
H        -18.61448        1.64898       10.73377
H        -15.98817       -1.04911        9.37641
H        -15.32481       -1.19908       11.04041
H        -14.33195       -0.44328        9.73406
H         -5.86322       -3.95085        9.19748
H         -6.28511       -5.35483       10.22673
H         -7.39497       -3.92708       10.17356
H        -14.07463       -3.30009        8.89124
H        -14.64222       -4.03963        7.35003
H        -14.41017       -2.25861        7.45460
H        -20.67003       -3.11198        6.90900
H        -20.55441       -4.87763        6.57796
H        -20.05264       -3.77103        5.32536
H        -19.51670       -2.93840        9.45542
H        -19.15266       -1.26283       10.01774
H        -17.82513       -2.47215        9.87851
H        -23.51535       -0.62894        7.66330
H        -22.02894       -1.50932        8.14413
H        -22.21871       -0.96813        6.43900
H        -13.63167        8.87536        5.93000
H        -15.05250        8.33738        6.88896
H        -15.30487        9.01199        5.24167
H        -11.53137       10.79199       -3.91632
H        -12.58192       12.18769       -4.33711
H        -12.74005       10.65068       -5.26392
H        -15.74287        6.51231      -10.41058
H        -17.29654        7.23611      -10.93577
H        -17.32791        5.84541       -9.81299
H        -14.12481        8.88119       -9.21936
H        -12.66373        8.14376       -8.44341
H        -13.84062        9.07031       -7.44645
H        -10.33495        8.74153       -4.01387
H         -9.17158        8.12323       -5.22803
H         -8.61352        8.42078       -3.53667
H        -12.37858        5.23219        6.19730
H        -11.50837        6.06261        7.53611
H        -10.85231        4.52363        6.85602
H         -8.35539       -1.77384       -1.98079
H        -11.04469      -13.34806       -4.51320
H        -11.04521      -12.79707       -6.22523
H         -9.50720      -12.77003       -5.24703
H        -10.94833       -9.30064      -11.07281
H        -10.43172      -10.29733       -9.66153
H        -11.23676       -8.70383       -9.39753
H        -20.01830        8.43921       -2.31605
H        -21.56215        7.95832       -1.48970
H        -20.86054        9.60770       -1.23829
H        -23.13310        4.73609       -0.21783
H        -24.42508        3.53006        0.18915
H        -24.08542        4.92317        1.30133
H        -14.81240      -12.35428       -1.21578
H        -13.85260      -12.39415        0.31565
H        -14.95362      -10.98488       -0.02613
H        -12.74832       -3.94523       -1.39659
H        -16.45707       -2.52929        3.78948
H        -18.27936       -0.83336        3.94622
H        -19.37319       -0.82973        5.35527
H        -19.26358       -2.24756        4.20774
H         -7.17574       -3.76729       -1.69096
H         -8.05367       -5.20127       -2.15922
H         -8.01807       -4.84436       -0.50740
