31
	Energy:      95.6816444
C         -0.10028       -0.73433       -1.48018
C          0.57100        0.45341       -1.12950
C          0.67860        0.84163        0.20881
C          0.12260        0.05213        1.22199
C         -0.54908       -1.12874        0.88320
C         -0.66019       -1.52001       -0.45385
H          1.01362        1.08364       -1.89026
H          1.20111        1.75732        0.45129
P          0.26694        0.57846        2.98630
H         -0.99537       -1.74682        1.65011
H         -1.18646       -2.43750       -0.68443
N         -0.21254       -1.13275       -2.84822
O         -0.78396       -2.13993       -3.14089
O          0.26367       -0.46335       -3.71516
O          0.97863        2.17015        3.18559
O          1.18877       -0.46070        4.05431
C          0.76891       -1.78928        3.88036
C          0.10058        3.16832        2.70791
O         -1.13002        0.68540        3.65862
C          1.44435       -2.66181        4.92712
H          1.08070       -2.16248        2.88097
H         -0.33087       -1.88659        4.02362
H          2.54827       -2.60106        4.81880
H          1.12828       -3.71844        4.79644
H          1.15988       -2.32405        5.94627
H          0.69633        3.89163        2.11226
C         -0.54297        3.90329        3.87630
H         -0.69060        2.78774        2.02192
H          0.24200        4.34359        4.52682
H         -1.16306        3.20701        4.47779
H         -1.19147        4.71912        3.49293
